
    -----------------------------------------------------------------------
          Psi4: An Open-Source Ab Initio Electronic Structure Package
                               Psi4 1.4rc3 

                         Git: Rev {HEAD} 080dba6 


    D. G. A. Smith, L. A. Burns, A. C. Simmonett, R. M. Parrish,
    M. C. Schieber, R. Galvelis, P. Kraus, H. Kruse, R. Di Remigio,
    A. Alenaizan, A. M. James, S. Lehtola, J. P. Misiewicz, M. Scheurer,
    R. A. Shaw, J. B. Schriber, Y. Xie, Z. L. Glick, D. A. Sirianni,
    J. S. O'Brien, J. M. Waldrop, A. Kumar, E. G. Hohenstein,
    B. P. Pritchard, B. R. Brooks, H. F. Schaefer III, A. Yu. Sokolov,
    K. Patkowski, A. E. DePrince III, U. Bozkaya, R. A. King,
    F. A. Evangelista, J. M. Turney, T. D. Crawford, C. D. Sherrill,
    J. Chem. Phys. 152(18) 184108 (2020). https://doi.org/10.1063/5.0006002

                            Additional Code Authors
    E. T. Seidl, C. L. Janssen, E. F. Valeev, M. L. Leininger,
    J. F. Gonthier, R. M. Richard, H. R. McAlexander, M. Saitow, X. Wang,
    P. Verma, and M. H. Lechner

             Previous Authors, Complete List of Code Contributors,
                       and Citations for Specific Modules
    https://github.com/psi4/psi4/blob/master/codemeta.json
    https://github.com/psi4/psi4/graphs/contributors
    http://psicode.org/psi4manual/master/introduction.html#citing-psifour

    -----------------------------------------------------------------------


    Psi4 started on: Tuesday, 14 September 2021 04:48PM

    Process ID: 1125
    Host:       ds1
    PSIDATADIR: /theoryfs2/ds/csargent/miniconda3/envs/cle/share/psi4
    Memory:     500.0 MiB
    Threads:    6
    
  ==> Input File <==

--------------------------------------------------------------------------
# PSI4 file produced by CrystaLattE

# Generated from:               imidazole.xyz
# Psithon input for N-mer:      2mer-0+543
# Number of atoms per monomer:  [9, 9]
# Number of replicas:           1
# COM priority:                 1.884029813625e-05
# Minimum COM separations:      19.887 
# Separation priority:          2.430736663271e-05
# Minimum monomer separations:  18.268 
# Cutoff priority:              7.041262719783e-07
# Nuclear repulsion energy:     362.56868948004546

memory 7 GB

molecule Dimer_0_543 {
  N           -4.29309621      -3.06837431       5.30516231 
  N           -2.15847371      -2.92627296       1.72037448 
  H           -0.02545587      -6.35903575       2.22046452 
  H           -2.68566968      -6.53260241       6.61445954 
  H           -4.74388423      -0.00609006       2.75615968 
  H           -1.41045540      -2.24723147       0.00000000 
  C           -1.43737991      -5.07504848       2.94065891 
  C           -2.76900782      -5.14609916       5.13522880 
  C           -3.85955036      -1.77728198       3.21093411 
--
  N          -19.05808204     -36.62865492      -4.69340168 
  N          -21.19270454     -36.77075628      -1.10861384 
  H          -23.32572239     -33.33799348      -1.60870389 
  H          -20.66550857     -33.16442682      -6.00269891 
  H          -18.60729403     -39.69093917      -2.14439904 
  H          -21.94072285     -37.44979776       0.61176063 
  C          -21.91379834     -34.62198075      -2.32889828 
  C          -20.58217043     -34.55093007      -4.52346817 
  C          -19.49162790     -37.91974725      -2.59917348 
units = au
no_com
no_reorient
}

set {
  e_convergence 10
  d_convergence 10
  scf_type df
  mp2_type df
  cc_type df
  freeze_core true
}

energy('sapt0/aug-cc-pvdz')

--------------------------------------------------------------------------

  Memory set to   6.519 GiB by Python driver.

Scratch directory: /scratch/csargent/psi4.31446.79897/

Scratch directory: /scratch/csargent/psi4.31446.79897/

  //>>>>>>>>>>>>>>>>>>>>>>>>>>>>>>>>>>>//
  //              Dimer HF             //
  //<<<<<<<<<<<<<<<<<<<<<<<<<<<<<<<<<<<//


*** tstart() called on ds1
*** at Tue Sep 14 16:48:25 2021

   => Loading Basis Set <=

    Name: AUG-CC-PVDZ
    Role: ORBITAL
    Keyword: BASIS
    atoms 1-2, 10-11 entry N          line   218 file /theoryfs2/ds/csargent/miniconda3/envs/cle/share/psi4/basis/aug-cc-pvdz.gbs 
    atoms 3-6, 12-15 entry H          line    40 file /theoryfs2/ds/csargent/miniconda3/envs/cle/share/psi4/basis/aug-cc-pvdz.gbs 
    atoms 7-9, 16-18 entry C          line   182 file /theoryfs2/ds/csargent/miniconda3/envs/cle/share/psi4/basis/aug-cc-pvdz.gbs 


         ---------------------------------------------------------
                                   SCF
               by Justin Turney, Rob Parrish, Andy Simmonett
                          and Daniel G. A. Smith
                              RHF Reference
                        6 Threads,   6675 MiB Core
         ---------------------------------------------------------

  ==> Geometry <==

    Molecular point group: c1
    Full point group: C1

    Geometry (in Bohr), charge = 0, multiplicity = 1:

       Center              X                  Y                   Z               Mass       
    ------------   -----------------  -----------------  -----------------  -----------------
         N           -4.293096210000    -3.068374310000     5.305162310000    14.003074004430
         N           -2.158473710000    -2.926272960000     1.720374480000    14.003074004430
         H           -0.025455870000    -6.359035750000     2.220464520000     1.007825032230
         H           -2.685669680000    -6.532602410000     6.614459540000     1.007825032230
         H           -4.743884230000    -0.006090060000     2.756159680000     1.007825032230
         H           -1.410455400000    -2.247231470000     0.000000000000     1.007825032230
         C           -1.437379910000    -5.075048480000     2.940658910000    12.000000000000
         C           -2.769007820000    -5.146099160000     5.135228800000    12.000000000000
         C           -3.859550360000    -1.777281980000     3.210934110000    12.000000000000
         N          -19.058082040000   -36.628654920000    -4.693401680000    14.003074004430
         N          -21.192704540000   -36.770756280000    -1.108613840000    14.003074004430
         H          -23.325722390000   -33.337993480000    -1.608703890000     1.007825032230
         H          -20.665508570000   -33.164426820000    -6.002698910000     1.007825032230
         H          -18.607294030000   -39.690939170000    -2.144399040000     1.007825032230
         H          -21.940722850000   -37.449797760000     0.611760630000     1.007825032230
         C          -21.913798340000   -34.621980750000    -2.328898280000    12.000000000000
         C          -20.582170430000   -34.550930070000    -4.523468170000    12.000000000000
         C          -19.491627900000   -37.919747250000    -2.599173480000    12.000000000000

  Running in c1 symmetry.

  Rotational constants: A =      0.03538  B =      0.00050  C =      0.00050 [cm^-1]
  Rotational constants: A =   1060.66392  B =     15.09683  C =     14.95506 [MHz]
  Nuclear repulsion =  362.568689518088661

  Charge       = 0
  Multiplicity = 1
  Electrons    = 72
  Nalpha       = 36
  Nbeta        = 36

  ==> Algorithm <==

  SCF Algorithm Type is DF.
  DIIS enabled.
  MOM disabled.
  Fractional occupation disabled.
  Guess Type is SAD.
  Energy threshold   = 1.00e-10
  Density threshold  = 1.00e-10
  Integral threshold = 1.00e-12

  ==> Primary Basis <==

  Basis Set: AUG-CC-PVDZ
    Blend: AUG-CC-PVDZ
    Number of shells: 130
    Number of basis functions: 302
    Number of Cartesian functions: 322
    Spherical Harmonics?: true
    Max angular momentum: 2

   => Loading Basis Set <=

    Name: (AUG-CC-PVDZ AUX)
    Role: JKFIT
    Keyword: DF_BASIS_SCF
    atoms 1-2, 10-11 entry N          line   212 file /theoryfs2/ds/csargent/miniconda3/envs/cle/share/psi4/basis/aug-cc-pvdz-jkfit.gbs 
    atoms 3-6, 12-15 entry H          line    70 file /theoryfs2/ds/csargent/miniconda3/envs/cle/share/psi4/basis/aug-cc-pvdz-jkfit.gbs 
    atoms 7-9, 16-18 entry C          line   154 file /theoryfs2/ds/csargent/miniconda3/envs/cle/share/psi4/basis/aug-cc-pvdz-jkfit.gbs 

  ==> Integral Setup <==

  ==> DiskDFJK: Density-Fitted J/K Matrices <==

    J tasked:                  Yes
    K tasked:                  Yes
    wK tasked:                  No
    OpenMP threads:              6
    Integrals threads:           6
    Memory [MiB]:             5006
    Algorithm:                Core
    Integral Cache:           SAVE
    Schwarz Cutoff:          1E-12
    Fitting Condition:       1E-10

   => Auxiliary Basis Set <=

  Basis Set: (AUG-CC-PVDZ AUX)
    Blend: AUG-CC-PVDZ-JKFIT
    Number of shells: 376
    Number of basis functions: 1116
    Number of Cartesian functions: 1290
    Spherical Harmonics?: true
    Max angular momentum: 3

  Minimum eigenvalue in the overlap matrix is 2.1837051017E-05.
  Reciprocal condition number of the overlap matrix is 1.8394504042E-06.
    Using symmetric orthogonalization.

  ==> Pre-Iterations <==

  SCF Guess: Superposition of Atomic Densities via on-the-fly atomic UHF (no occupation information).

   -------------------------
    Irrep   Nso     Nmo    
   -------------------------
     A        302     302 
   -------------------------
    Total     302     302
   -------------------------

  ==> Iterations <==

                           Total Energy        Delta E     RMS |[F,P]|

   @DF-RHF iter SAD:  -449.11714338866909   -4.49117e+02   0.00000e+00 
   @DF-RHF iter   1:  -449.39622090395972   -2.79078e-01   2.30591e-03 DIIS
   @DF-RHF iter   2:  -449.61072722300185   -2.14506e-01   1.31109e-03 DIIS
   @DF-RHF iter   3:  -449.68341224639943   -7.26850e-02   2.45935e-04 DIIS
   @DF-RHF iter   4:  -449.68678003917165   -3.36779e-03   1.12882e-04 DIIS
   @DF-RHF iter   5:  -449.68738201148864   -6.01972e-04   1.78810e-05 DIIS
   @DF-RHF iter   6:  -449.68741667258394   -3.46611e-05   7.94396e-06 DIIS
   @DF-RHF iter   7:  -449.68742284732753   -6.17474e-06   3.10394e-06 DIIS
   @DF-RHF iter   8:  -449.68742431146444   -1.46414e-06   1.09978e-06 DIIS
   @DF-RHF iter   9:  -449.68742453315753   -2.21693e-07   2.65868e-07 DIIS
   @DF-RHF iter  10:  -449.68742454423455   -1.10770e-08   1.03712e-07 DIIS
   @DF-RHF iter  11:  -449.68742454588761   -1.65306e-09   4.62479e-08 DIIS
   @DF-RHF iter  12:  -449.68742454619195   -3.04340e-10   1.37355e-08 DIIS
   @DF-RHF iter  13:  -449.68742454621770   -2.57501e-11   5.07425e-09 DIIS
   @DF-RHF iter  14:  -449.68742454622117   -3.46745e-12   2.24020e-09 DIIS
   @DF-RHF iter  15:  -449.68742454622168   -5.11591e-13   7.46094e-10 DIIS
   @DF-RHF iter  16:  -449.68742454622225   -5.68434e-13   3.31337e-10 DIIS
   @DF-RHF iter  17:  -449.68742454622162    6.25278e-13   6.66018e-11 DIIS
  Energy and wave function converged.


  ==> Post-Iterations <==

    Orbital Energies [Eh]
    ---------------------

    Doubly Occupied:                                                      

       1A    -15.636822     2A    -15.636822     3A    -15.550994  
       4A    -15.550994     5A    -11.300684     6A    -11.300684  
       7A    -11.262909     8A    -11.262909     9A    -11.245409  
      10A    -11.245409    11A     -1.352625    12A     -1.352625  
      13A     -1.168862    14A     -1.168862    15A     -1.011854  
      16A     -1.011854    17A     -0.824147    18A     -0.824147  
      19A     -0.803489    20A     -0.803489    21A     -0.760422  
      22A     -0.760422    23A     -0.609856    24A     -0.609856  
      25A     -0.603714    26A     -0.603714    27A     -0.601666  
      28A     -0.601666    29A     -0.570713    30A     -0.570713  
      31A     -0.435267    32A     -0.435267    33A     -0.400233  
      34A     -0.400233    35A     -0.320439    36A     -0.320439  

    Virtual:                                                              

      37A      0.025715    38A      0.025715    39A      0.041886  
      40A      0.041887    41A      0.050189    42A      0.050189  
      43A      0.062106    44A      0.062106    45A      0.089346  
      46A      0.089346    47A      0.101607    48A      0.101607  
      49A      0.121080    50A      0.121080    51A      0.125853  
      52A      0.125853    53A      0.133777    54A      0.133777  
      55A      0.133981    56A      0.133981    57A      0.141178  
      58A      0.141178    59A      0.156817    60A      0.156818  
      61A      0.158932    62A      0.158932    63A      0.172163  
      64A      0.172164    65A      0.178444    66A      0.178444  
      67A      0.187480    68A      0.187480    69A      0.211771  
      70A      0.211771    71A      0.220525    72A      0.220525  
      73A      0.232583    74A      0.232583    75A      0.241673  
      76A      0.241673    77A      0.261867    78A      0.261867  
      79A      0.267965    80A      0.267965    81A      0.278106  
      82A      0.278106    83A      0.301999    84A      0.301999  
      85A      0.314630    86A      0.314630    87A      0.338432  
      88A      0.338432    89A      0.361760    90A      0.361760  
      91A      0.371006    92A      0.371006    93A      0.380060  
      94A      0.380061    95A      0.388562    96A      0.388562  
      97A      0.397358    98A      0.397358    99A      0.417240  
     100A      0.417241   101A      0.429211   102A      0.429211  
     103A      0.452304   104A      0.452304   105A      0.466587  
     106A      0.466587   107A      0.481494   108A      0.481494  
     109A      0.486531   110A      0.486531   111A      0.488386  
     112A      0.488386   113A      0.551954   114A      0.551954  
     115A      0.556640   116A      0.556640   117A      0.568531  
     118A      0.568531   119A      0.576706   120A      0.576706  
     121A      0.594508   122A      0.594508   123A      0.599199  
     124A      0.599199   125A      0.616312   126A      0.616312  
     127A      0.636794   128A      0.636794   129A      0.652734  
     130A      0.652734   131A      0.669522   132A      0.669522  
     133A      0.671579   134A      0.671579   135A      0.678432  
     136A      0.678432   137A      0.684121   138A      0.684121  
     139A      0.714947   140A      0.714947   141A      0.726016  
     142A      0.726016   143A      0.741472   144A      0.741472  
     145A      0.762931   146A      0.762931   147A      0.767638  
     148A      0.767638   149A      0.791177   150A      0.791177  
     151A      0.793832   152A      0.793832   153A      0.809994  
     154A      0.809994   155A      0.860636   156A      0.860636  
     157A      0.871668   158A      0.871668   159A      0.885994  
     160A      0.885994   161A      0.890079   162A      0.890079  
     163A      0.954595   164A      0.954595   165A      0.977207  
     166A      0.977207   167A      0.998589   168A      0.998589  
     169A      1.010924   170A      1.010924   171A      1.017643  
     172A      1.017643   173A      1.030917   174A      1.030917  
     175A      1.077577   176A      1.077577   177A      1.084789  
     178A      1.084789   179A      1.127223   180A      1.127223  
     181A      1.140727   182A      1.140727   183A      1.149807  
     184A      1.149807   185A      1.167406   186A      1.167406  
     187A      1.217674   188A      1.217674   189A      1.260984  
     190A      1.260984   191A      1.302774   192A      1.302774  
     193A      1.385272   194A      1.385272   195A      1.398373  
     196A      1.398373   197A      1.451379   198A      1.451379  
     199A      1.503520   200A      1.503520   201A      1.518655  
     202A      1.518655   203A      1.574374   204A      1.574374  
     205A      1.574517   206A      1.574517   207A      1.596628  
     208A      1.596628   209A      1.652398   210A      1.652398  
     211A      1.671749   212A      1.671749   213A      1.705535  
     214A      1.705536   215A      1.724703   216A      1.724703  
     217A      1.782897   218A      1.782897   219A      1.799313  
     220A      1.799313   221A      1.807301   222A      1.807301  
     223A      1.865184   224A      1.865184   225A      1.881711  
     226A      1.881711   227A      1.924625   228A      1.924625  
     229A      1.965228   230A      1.965228   231A      2.022259  
     232A      2.022259   233A      2.025677   234A      2.025677  
     235A      2.073226   236A      2.073226   237A      2.107298  
     238A      2.107298   239A      2.127004   240A      2.127004  
     241A      2.136211   242A      2.136211   243A      2.168916  
     244A      2.168916   245A      2.179061   246A      2.179061  
     247A      2.267323   248A      2.267323   249A      2.276194  
     250A      2.276194   251A      2.301157   252A      2.301157  
     253A      2.332309   254A      2.332309   255A      2.418008  
     256A      2.418008   257A      2.497169   258A      2.497169  
     259A      2.514260   260A      2.514260   261A      2.545595  
     262A      2.545595   263A      2.585990   264A      2.585990  
     265A      2.634005   266A      2.634005   267A      2.734337  
     268A      2.734337   269A      2.747259   270A      2.747259  
     271A      2.767335   272A      2.767335   273A      2.794388  
     274A      2.794388   275A      2.803677   276A      2.803677  
     277A      2.837889   278A      2.837889   279A      2.867449  
     280A      2.867449   281A      2.952981   282A      2.952981  
     283A      2.981092   284A      2.981092   285A      3.051446  
     286A      3.051446   287A      3.070152   288A      3.070152  
     289A      3.199401   290A      3.199401   291A      3.209034  
     292A      3.209034   293A      3.335053   294A      3.335053  
     295A      3.354808   296A      3.354808   297A      3.518788  
     298A      3.518788   299A      3.768528   300A      3.768528  
     301A      4.109273   302A      4.109273  

    Final Occupation by Irrep:
              A 
    DOCC [    36 ]

  @DF-RHF Final Energy:  -449.68742454622162

   => Energetics <=

    Nuclear Repulsion Energy =            362.5686895180886609
    One-Electron Energy =               -1326.6718083991477215
    Two-Electron Energy =                 514.4156943348375535
    Total Energy =                       -449.6874245462215640

Computation Completed


Properties will be evaluated at   0.000000,   0.000000,   0.000000 [a0]

Properties computed using the SCF density matrix

  Nuclear Dipole Moment: [e a0]
     X:  -840.6424      Y: -1429.0931      Z:    22.0234

  Electronic Dipole Moment: [e a0]
     X:   840.6424      Y:  1429.0931      Z:   -22.0234

  Dipole Moment: [e a0]
     X:    -0.0000      Y:     0.0000      Z:    -0.0000     Total:     0.0000

  Dipole Moment: [D]
     X:    -0.0000      Y:     0.0000      Z:    -0.0000     Total:     0.0000


*** tstop() called on ds1 at Tue Sep 14 16:48:30 2021
Module time:
	user time   =      21.99 seconds =       0.37 minutes
	system time =       0.52 seconds =       0.01 minutes
	total time  =          5 seconds =       0.08 minutes
Total time:
	user time   =      21.99 seconds =       0.37 minutes
	system time =       0.52 seconds =       0.01 minutes
	total time  =          5 seconds =       0.08 minutes

  //>>>>>>>>>>>>>>>>>>>>>>>>>>>>>>>>>>>//
  //            Monomer A HF           //
  //<<<<<<<<<<<<<<<<<<<<<<<<<<<<<<<<<<<//


*** tstart() called on ds1
*** at Tue Sep 14 16:48:30 2021

   => Loading Basis Set <=

    Name: AUG-CC-PVDZ
    Role: ORBITAL
    Keyword: BASIS
    atoms 1-2, 10-11 entry N          line   218 file /theoryfs2/ds/csargent/miniconda3/envs/cle/share/psi4/basis/aug-cc-pvdz.gbs 
    atoms 3-6, 12-15 entry H          line    40 file /theoryfs2/ds/csargent/miniconda3/envs/cle/share/psi4/basis/aug-cc-pvdz.gbs 
    atoms 7-9, 16-18 entry C          line   182 file /theoryfs2/ds/csargent/miniconda3/envs/cle/share/psi4/basis/aug-cc-pvdz.gbs 


         ---------------------------------------------------------
                                   SCF
               by Justin Turney, Rob Parrish, Andy Simmonett
                          and Daniel G. A. Smith
                              RHF Reference
                        6 Threads,   6675 MiB Core
         ---------------------------------------------------------

  ==> Geometry <==

    Molecular point group: c1
    Full point group: C1

    Geometry (in Bohr), charge = 0, multiplicity = 1:

       Center              X                  Y                   Z               Mass       
    ------------   -----------------  -----------------  -----------------  -----------------
         N           -4.293096210000    -3.068374310000     5.305162310000    14.003074004430
         N           -2.158473710000    -2.926272960000     1.720374480000    14.003074004430
         H           -0.025455870000    -6.359035750000     2.220464520000     1.007825032230
         H           -2.685669680000    -6.532602410000     6.614459540000     1.007825032230
         H           -4.743884230000    -0.006090060000     2.756159680000     1.007825032230
         H           -1.410455400000    -2.247231470000     0.000000000000     1.007825032230
         C           -1.437379910000    -5.075048480000     2.940658910000    12.000000000000
         C           -2.769007820000    -5.146099160000     5.135228800000    12.000000000000
         C           -3.859550360000    -1.777281980000     3.210934110000    12.000000000000
      Gh(N)         -19.058082040000   -36.628654920000    -4.693401680000    14.003074004430
      Gh(N)         -21.192704540000   -36.770756280000    -1.108613840000    14.003074004430
      Gh(H)         -23.325722390000   -33.337993480000    -1.608703890000     1.007825032230
      Gh(H)         -20.665508570000   -33.164426820000    -6.002698910000     1.007825032230
      Gh(H)         -18.607294030000   -39.690939170000    -2.144399040000     1.007825032230
      Gh(H)         -21.940722850000   -37.449797760000     0.611760630000     1.007825032230
      Gh(C)         -21.913798340000   -34.621980750000    -2.328898280000    12.000000000000
      Gh(C)         -20.582170430000   -34.550930070000    -4.523468170000    12.000000000000
      Gh(C)         -19.491627900000   -37.919747250000    -2.599173480000    12.000000000000

  Running in c1 symmetry.

  Rotational constants: A =      0.03538  B =      0.00050  C =      0.00050 [cm^-1]
  Rotational constants: A =   1060.66392  B =     15.09683  C =     14.95506 [MHz]
  Nuclear repulsion =  164.086695994184396

  Charge       = 0
  Multiplicity = 1
  Electrons    = 36
  Nalpha       = 18
  Nbeta        = 18

  ==> Algorithm <==

  SCF Algorithm Type is DF.
  DIIS enabled.
  MOM disabled.
  Fractional occupation disabled.
  Guess Type is SAD.
  Energy threshold   = 1.00e-10
  Density threshold  = 1.00e-10
  Integral threshold = 1.00e-12

  ==> Primary Basis <==

  Basis Set: AUG-CC-PVDZ
    Blend: AUG-CC-PVDZ
    Number of shells: 130
    Number of basis functions: 302
    Number of Cartesian functions: 322
    Spherical Harmonics?: true
    Max angular momentum: 2

   => Loading Basis Set <=

    Name: (AUG-CC-PVDZ AUX)
    Role: JKFIT
    Keyword: DF_BASIS_SCF
    atoms 1-2, 10-11 entry N          line   212 file /theoryfs2/ds/csargent/miniconda3/envs/cle/share/psi4/basis/aug-cc-pvdz-jkfit.gbs 
    atoms 3-6, 12-15 entry H          line    70 file /theoryfs2/ds/csargent/miniconda3/envs/cle/share/psi4/basis/aug-cc-pvdz-jkfit.gbs 
    atoms 7-9, 16-18 entry C          line   154 file /theoryfs2/ds/csargent/miniconda3/envs/cle/share/psi4/basis/aug-cc-pvdz-jkfit.gbs 

  ==> Integral Setup <==

  ==> DiskDFJK: Density-Fitted J/K Matrices <==

    J tasked:                  Yes
    K tasked:                  Yes
    wK tasked:                  No
    OpenMP threads:              6
    Integrals threads:           6
    Memory [MiB]:             5006
    Algorithm:                Core
    Integral Cache:           LOAD
    Schwarz Cutoff:          1E-12
    Fitting Condition:       1E-10

   => Auxiliary Basis Set <=

  Basis Set: (AUG-CC-PVDZ AUX)
    Blend: AUG-CC-PVDZ-JKFIT
    Number of shells: 376
    Number of basis functions: 1116
    Number of Cartesian functions: 1290
    Spherical Harmonics?: true
    Max angular momentum: 3

  Minimum eigenvalue in the overlap matrix is 2.1837051017E-05.
  Reciprocal condition number of the overlap matrix is 1.8394504042E-06.
    Using symmetric orthogonalization.

  ==> Pre-Iterations <==

  SCF Guess: Superposition of Atomic Densities via on-the-fly atomic UHF (no occupation information).

   -------------------------
    Irrep   Nso     Nmo    
   -------------------------
     A        302     302 
   -------------------------
    Total     302     302
   -------------------------

  ==> Iterations <==

                           Total Energy        Delta E     RMS |[F,P]|

   @DF-RHF iter SAD:  -224.55857169589214   -2.24559e+02   0.00000e+00 
   @DF-RHF iter   1:  -224.69806464878570   -1.39493e-01   1.63067e-03 DIIS
   @DF-RHF iter   2:  -224.80532026741145   -1.07256e-01   9.27384e-04 DIIS
   @DF-RHF iter   3:  -224.84168817140977   -3.63679e-02   1.74019e-04 DIIS
   @DF-RHF iter   4:  -224.84337342349045   -1.68525e-03   7.98972e-05 DIIS
   @DF-RHF iter   5:  -224.84367500420456   -3.01581e-04   1.26452e-05 DIIS
   @DF-RHF iter   6:  -224.84369234123776   -1.73370e-05   5.61871e-06 DIIS
   @DF-RHF iter   7:  -224.84369542930750   -3.08807e-06   2.19503e-06 DIIS
   @DF-RHF iter   8:  -224.84369616122618   -7.31919e-07   7.77587e-07 DIIS
   @DF-RHF iter   9:  -224.84369627202003   -1.10794e-07   1.87961e-07 DIIS
   @DF-RHF iter  10:  -224.84369627755606   -5.53604e-09   7.33125e-08 DIIS
   @DF-RHF iter  11:  -224.84369627838191   -8.25850e-10   3.26918e-08 DIIS
   @DF-RHF iter  12:  -224.84369627853417   -1.52255e-10   9.70884e-09 DIIS
   @DF-RHF iter  13:  -224.84369627854713   -1.29603e-11   3.58840e-09 DIIS
   @DF-RHF iter  14:  -224.84369627854895   -1.81899e-12   1.58275e-09 DIIS
   @DF-RHF iter  15:  -224.84369627854943   -4.83169e-13   5.27556e-10 DIIS
   @DF-RHF iter  16:  -224.84369627854952   -8.52651e-14   2.34517e-10 DIIS
   @DF-RHF iter  17:  -224.84369627854952    0.00000e+00   4.71136e-11 DIIS
  Energy and wave function converged.


  ==> Post-Iterations <==

    Orbital Energies [Eh]
    ---------------------

    Doubly Occupied:                                                      

       1A    -15.637071     2A    -15.551216     3A    -11.300916  
       4A    -11.263160     5A    -11.245653     6A     -1.352867  
       7A     -1.169098     8A     -1.012098     9A     -0.824390  
      10A     -0.803731    11A     -0.760666    12A     -0.610096  
      13A     -0.603958    14A     -0.601922    15A     -0.570942  
      16A     -0.435483    17A     -0.400464    18A     -0.320685  

    Virtual:                                                              

      19A      0.022919    20A      0.025388    21A      0.040431  
      22A      0.041580    23A      0.043956    24A      0.049997  
      25A      0.061864    26A      0.068092    27A      0.076882  
      28A      0.086500    29A      0.089096    30A      0.097900  
      31A      0.101397    32A      0.120831    33A      0.125019  
      34A      0.125366    35A      0.125577    36A      0.127131  
      37A      0.127646    38A      0.133472    39A      0.133773  
      40A      0.134435    41A      0.138483    42A      0.140942  
      43A      0.156500    44A      0.157073    45A      0.158699  
      46A      0.171988    47A      0.178189    48A      0.187224  
      49A      0.192567    50A      0.208151    51A      0.209731  
      52A      0.211559    53A      0.212805    54A      0.220268  
      55A      0.220585    56A      0.222901    57A      0.232359  
      58A      0.233443    59A      0.241408    60A      0.261605  
      61A      0.267803    62A      0.272512    63A      0.277911  
      64A      0.299674    65A      0.301746    66A      0.306795  
      67A      0.314442    68A      0.319597    69A      0.338197  
      70A      0.360511    71A      0.361488    72A      0.370745  
      73A      0.375891    74A      0.379800    75A      0.388291  
      76A      0.393790    77A      0.397097    78A      0.417031  
      79A      0.427762    80A      0.429000    81A      0.435613  
      82A      0.440708    83A      0.449407    84A      0.452059  
      85A      0.452542    86A      0.466350    87A      0.468534  
      88A      0.481229    89A      0.481386    90A      0.486283  
      91A      0.488151    92A      0.517703    93A      0.520962  
      94A      0.536329    95A      0.538651    96A      0.543486  
      97A      0.551710    98A      0.556206    99A      0.556382  
     100A      0.568280   101A      0.576474   102A      0.579793  
     103A      0.587928   104A      0.594249   105A      0.598939  
     106A      0.606823   107A      0.612416   108A      0.616080  
     109A      0.618715   110A      0.636538   111A      0.640153  
     112A      0.652504   113A      0.669282   114A      0.671337  
     115A      0.678032   116A      0.678185   117A      0.683874  
     118A      0.684137   119A      0.711533   120A      0.714698  
     121A      0.725758   122A      0.736483   123A      0.741238  
     124A      0.756522   125A      0.762698   126A      0.767400  
     127A      0.790929   128A      0.793606   129A      0.798624  
     130A      0.809747   131A      0.810879   132A      0.812836  
     133A      0.823669   134A      0.836973   135A      0.859999  
     136A      0.860398   137A      0.871425   138A      0.885765  
     139A      0.886927   140A      0.889823   141A      0.910135  
     142A      0.920018   143A      0.927283   144A      0.954351  
     145A      0.969118   146A      0.976964   147A      0.992211  
     148A      0.998360   149A      1.010706   150A      1.015830  
     151A      1.017404   152A      1.030676   153A      1.059399  
     154A      1.077353   155A      1.079019   156A      1.084552  
     157A      1.104047   158A      1.116425   159A      1.126983  
     160A      1.132889   161A      1.140497   162A      1.149565  
     163A      1.167170   164A      1.171284   165A      1.174458  
     166A      1.197955   167A      1.210985   168A      1.217445  
     169A      1.260721   170A      1.278406   171A      1.291037  
     172A      1.297375   173A      1.302539   174A      1.312960  
     175A      1.318512   176A      1.347964   177A      1.384525  
     178A      1.385028   179A      1.398145   180A      1.451143  
     181A      1.495324   182A      1.503288   183A      1.516245  
     184A      1.518410   185A      1.541759   186A      1.574127  
     187A      1.574285   188A      1.596381   189A      1.652159  
     190A      1.661355   191A      1.671505   192A      1.705286  
     193A      1.724477   194A      1.782643   195A      1.799067  
     196A      1.807063   197A      1.864950   198A      1.881477  
     199A      1.924391   200A      1.964987   201A      2.022005  
     202A      2.025429   203A      2.040115   204A      2.072981  
     205A      2.101495   206A      2.107054   207A      2.119870  
     208A      2.126759   209A      2.131827   210A      2.135965  
     211A      2.149949   212A      2.168670   213A      2.178815  
     214A      2.185572   215A      2.230220   216A      2.253205  
     217A      2.267082   218A      2.275963   219A      2.300924  
     220A      2.309154   221A      2.327637   222A      2.332072  
     223A      2.377315   224A      2.406157   225A      2.413891  
     226A      2.417758   227A      2.456267   228A      2.471339  
     229A      2.494457   230A      2.496919   231A      2.514025  
     232A      2.526384   233A      2.545345   234A      2.545977  
     235A      2.577408   236A      2.585743   237A      2.600413  
     238A      2.633765   239A      2.696804   240A      2.734093  
     241A      2.747025   242A      2.767089   243A      2.790917  
     244A      2.794149   245A      2.803444   246A      2.829417  
     247A      2.837641   248A      2.867213   249A      2.896341  
     250A      2.933877   251A      2.950018   252A      2.952738  
     253A      2.980862   254A      3.044110   255A      3.051201  
     256A      3.069910   257A      3.076803   258A      3.132512  
     259A      3.160252   260A      3.183559   261A      3.199163  
     262A      3.208795   263A      3.213995   264A      3.334816  
     265A      3.341478   266A      3.354572   267A      3.355380  
     268A      3.363534   269A      3.459304   270A      3.495057  
     271A      3.518552   272A      3.570255   273A      3.609526  
     274A      3.707886   275A      3.727363   276A      3.768294  
     277A      3.779033   278A      3.798852   279A      3.858597  
     280A      3.871361   281A      4.004520   282A      4.109022  
     283A      4.213412   284A      4.637397   285A      4.639453  
     286A      4.696615   287A      4.772458   288A      4.880741  
     289A      5.022072   290A      5.255316   291A      5.373840  
     292A      5.495469   293A      5.611042   294A      5.716962  
     295A      5.884578   296A      6.090381   297A      6.198813  
     298A     18.256148   299A     18.590780   300A     19.301109  
     301A     25.312549   302A     25.453956  

    Final Occupation by Irrep:
              A 
    DOCC [    18 ]

  @DF-RHF Final Energy:  -224.84369627854952

   => Energetics <=

    Nuclear Repulsion Energy =            164.0866959941843959
    One-Electron Energy =                -628.9319563017236305
    Two-Electron Energy =                 240.0015640289896908
    Total Energy =                       -224.8436962785495155

Computation Completed


Properties will be evaluated at   0.000000,   0.000000,   0.000000 [a0]

Properties computed using the SCF density matrix

  Nuclear Dipole Moment: [e a0]
     X:  -102.4221      Y:  -129.0981      Z:   128.4908

  Electronic Dipole Moment: [e a0]
     X:   103.2259      Y:   129.2613      Z:  -129.8232

  Dipole Moment: [e a0]
     X:     0.8038      Y:     0.1633      Z:    -1.3324     Total:     1.5646

  Dipole Moment: [D]
     X:     2.0431      Y:     0.4150      Z:    -3.3867     Total:     3.9769


*** tstop() called on ds1 at Tue Sep 14 16:48:33 2021
Module time:
	user time   =      15.73 seconds =       0.26 minutes
	system time =       0.31 seconds =       0.01 minutes
	total time  =          3 seconds =       0.05 minutes
Total time:
	user time   =      37.88 seconds =       0.63 minutes
	system time =       0.83 seconds =       0.01 minutes
	total time  =          8 seconds =       0.13 minutes

  //>>>>>>>>>>>>>>>>>>>>>>>>>>>>>>>>>>>//
  //            Monomer B HF           //
  //<<<<<<<<<<<<<<<<<<<<<<<<<<<<<<<<<<<//


*** tstart() called on ds1
*** at Tue Sep 14 16:48:33 2021

   => Loading Basis Set <=

    Name: AUG-CC-PVDZ
    Role: ORBITAL
    Keyword: BASIS
    atoms 1-2, 10-11 entry N          line   218 file /theoryfs2/ds/csargent/miniconda3/envs/cle/share/psi4/basis/aug-cc-pvdz.gbs 
    atoms 3-6, 12-15 entry H          line    40 file /theoryfs2/ds/csargent/miniconda3/envs/cle/share/psi4/basis/aug-cc-pvdz.gbs 
    atoms 7-9, 16-18 entry C          line   182 file /theoryfs2/ds/csargent/miniconda3/envs/cle/share/psi4/basis/aug-cc-pvdz.gbs 


         ---------------------------------------------------------
                                   SCF
               by Justin Turney, Rob Parrish, Andy Simmonett
                          and Daniel G. A. Smith
                              RHF Reference
                        6 Threads,   6675 MiB Core
         ---------------------------------------------------------

  ==> Geometry <==

    Molecular point group: c1
    Full point group: C1

    Geometry (in Bohr), charge = 0, multiplicity = 1:

       Center              X                  Y                   Z               Mass       
    ------------   -----------------  -----------------  -----------------  -----------------
      Gh(N)          -4.293096210000    -3.068374310000     5.305162310000    14.003074004430
      Gh(N)          -2.158473710000    -2.926272960000     1.720374480000    14.003074004430
      Gh(H)          -0.025455870000    -6.359035750000     2.220464520000     1.007825032230
      Gh(H)          -2.685669680000    -6.532602410000     6.614459540000     1.007825032230
      Gh(H)          -4.743884230000    -0.006090060000     2.756159680000     1.007825032230
      Gh(H)          -1.410455400000    -2.247231470000     0.000000000000     1.007825032230
      Gh(C)          -1.437379910000    -5.075048480000     2.940658910000    12.000000000000
      Gh(C)          -2.769007820000    -5.146099160000     5.135228800000    12.000000000000
      Gh(C)          -3.859550360000    -1.777281980000     3.210934110000    12.000000000000
         N          -19.058082040000   -36.628654920000    -4.693401680000    14.003074004430
         N          -21.192704540000   -36.770756280000    -1.108613840000    14.003074004430
         H          -23.325722390000   -33.337993480000    -1.608703890000     1.007825032230
         H          -20.665508570000   -33.164426820000    -6.002698910000     1.007825032230
         H          -18.607294030000   -39.690939170000    -2.144399040000     1.007825032230
         H          -21.940722850000   -37.449797760000     0.611760630000     1.007825032230
         C          -21.913798340000   -34.621980750000    -2.328898280000    12.000000000000
         C          -20.582170430000   -34.550930070000    -4.523468170000    12.000000000000
         C          -19.491627900000   -37.919747250000    -2.599173480000    12.000000000000

  Running in c1 symmetry.

  Rotational constants: A =      0.03538  B =      0.00050  C =      0.00050 [cm^-1]
  Rotational constants: A =   1060.66392  B =     15.09683  C =     14.95506 [MHz]
  Nuclear repulsion =  164.086695896718538

  Charge       = 0
  Multiplicity = 1
  Electrons    = 36
  Nalpha       = 18
  Nbeta        = 18

  ==> Algorithm <==

  SCF Algorithm Type is DF.
  DIIS enabled.
  MOM disabled.
  Fractional occupation disabled.
  Guess Type is SAD.
  Energy threshold   = 1.00e-10
  Density threshold  = 1.00e-10
  Integral threshold = 1.00e-12

  ==> Primary Basis <==

  Basis Set: AUG-CC-PVDZ
    Blend: AUG-CC-PVDZ
    Number of shells: 130
    Number of basis functions: 302
    Number of Cartesian functions: 322
    Spherical Harmonics?: true
    Max angular momentum: 2

   => Loading Basis Set <=

    Name: (AUG-CC-PVDZ AUX)
    Role: JKFIT
    Keyword: DF_BASIS_SCF
    atoms 1-2, 10-11 entry N          line   212 file /theoryfs2/ds/csargent/miniconda3/envs/cle/share/psi4/basis/aug-cc-pvdz-jkfit.gbs 
    atoms 3-6, 12-15 entry H          line    70 file /theoryfs2/ds/csargent/miniconda3/envs/cle/share/psi4/basis/aug-cc-pvdz-jkfit.gbs 
    atoms 7-9, 16-18 entry C          line   154 file /theoryfs2/ds/csargent/miniconda3/envs/cle/share/psi4/basis/aug-cc-pvdz-jkfit.gbs 

  ==> Integral Setup <==

  ==> DiskDFJK: Density-Fitted J/K Matrices <==

    J tasked:                  Yes
    K tasked:                  Yes
    wK tasked:                  No
    OpenMP threads:              6
    Integrals threads:           6
    Memory [MiB]:             5006
    Algorithm:                Core
    Integral Cache:           LOAD
    Schwarz Cutoff:          1E-12
    Fitting Condition:       1E-10

   => Auxiliary Basis Set <=

  Basis Set: (AUG-CC-PVDZ AUX)
    Blend: AUG-CC-PVDZ-JKFIT
    Number of shells: 376
    Number of basis functions: 1116
    Number of Cartesian functions: 1290
    Spherical Harmonics?: true
    Max angular momentum: 3

  Minimum eigenvalue in the overlap matrix is 2.1837051017E-05.
  Reciprocal condition number of the overlap matrix is 1.8394504042E-06.
    Using symmetric orthogonalization.

  ==> Pre-Iterations <==

  SCF Guess: Superposition of Atomic Densities via on-the-fly atomic UHF (no occupation information).

   -------------------------
    Irrep   Nso     Nmo    
   -------------------------
     A        302     302 
   -------------------------
    Total     302     302
   -------------------------

  ==> Iterations <==

                           Total Energy        Delta E     RMS |[F,P]|

   @DF-RHF iter SAD:  -224.55857168839546   -2.24559e+02   0.00000e+00 
   @DF-RHF iter   1:  -224.69806465001250   -1.39493e-01   1.63067e-03 DIIS
   @DF-RHF iter   2:  -224.80532026813520   -1.07256e-01   9.27384e-04 DIIS
   @DF-RHF iter   3:  -224.84168817183485   -3.63679e-02   1.74019e-04 DIIS
   @DF-RHF iter   4:  -224.84337342392175   -1.68525e-03   7.98972e-05 DIIS
   @DF-RHF iter   5:  -224.84367500463838   -3.01581e-04   1.26452e-05 DIIS
   @DF-RHF iter   6:  -224.84369234167139   -1.73370e-05   5.61871e-06 DIIS
   @DF-RHF iter   7:  -224.84369542974144   -3.08807e-06   2.19503e-06 DIIS
   @DF-RHF iter   8:  -224.84369616165964   -7.31918e-07   7.77587e-07 DIIS
   @DF-RHF iter   9:  -224.84369627245337   -1.10794e-07   1.87961e-07 DIIS
   @DF-RHF iter  10:  -224.84369627798924   -5.53587e-09   7.33125e-08 DIIS
   @DF-RHF iter  11:  -224.84369627881551   -8.26276e-10   3.26918e-08 DIIS
   @DF-RHF iter  12:  -224.84369627896768   -1.52170e-10   9.70884e-09 DIIS
   @DF-RHF iter  13:  -224.84369627898079   -1.31024e-11   3.58840e-09 DIIS
   @DF-RHF iter  14:  -224.84369627898207   -1.27898e-12   1.58275e-09 DIIS
   @DF-RHF iter  15:  -224.84369627898258   -5.11591e-13   5.27556e-10 DIIS
   @DF-RHF iter  16:  -224.84369627898263   -5.68434e-14   2.34517e-10 DIIS
   @DF-RHF iter  17:  -224.84369627898283   -1.98952e-13   4.71137e-11 DIIS
  Energy and wave function converged.


  ==> Post-Iterations <==

    Orbital Energies [Eh]
    ---------------------

    Doubly Occupied:                                                      

       1A    -15.637071     2A    -15.551216     3A    -11.300916  
       4A    -11.263160     5A    -11.245653     6A     -1.352867  
       7A     -1.169098     8A     -1.012098     9A     -0.824390  
      10A     -0.803731    11A     -0.760666    12A     -0.610096  
      13A     -0.603958    14A     -0.601922    15A     -0.570942  
      16A     -0.435483    17A     -0.400464    18A     -0.320685  

    Virtual:                                                              

      19A      0.022919    20A      0.025388    21A      0.040431  
      22A      0.041580    23A      0.043956    24A      0.049997  
      25A      0.061864    26A      0.068092    27A      0.076882  
      28A      0.086500    29A      0.089096    30A      0.097900  
      31A      0.101397    32A      0.120831    33A      0.125019  
      34A      0.125366    35A      0.125577    36A      0.127131  
      37A      0.127646    38A      0.133472    39A      0.133773  
      40A      0.134435    41A      0.138483    42A      0.140942  
      43A      0.156500    44A      0.157073    45A      0.158699  
      46A      0.171988    47A      0.178189    48A      0.187224  
      49A      0.192567    50A      0.208151    51A      0.209731  
      52A      0.211559    53A      0.212805    54A      0.220268  
      55A      0.220585    56A      0.222901    57A      0.232359  
      58A      0.233443    59A      0.241408    60A      0.261605  
      61A      0.267803    62A      0.272512    63A      0.277911  
      64A      0.299674    65A      0.301746    66A      0.306795  
      67A      0.314442    68A      0.319597    69A      0.338197  
      70A      0.360511    71A      0.361488    72A      0.370745  
      73A      0.375891    74A      0.379800    75A      0.388291  
      76A      0.393790    77A      0.397097    78A      0.417031  
      79A      0.427762    80A      0.429000    81A      0.435613  
      82A      0.440708    83A      0.449407    84A      0.452059  
      85A      0.452542    86A      0.466350    87A      0.468534  
      88A      0.481229    89A      0.481386    90A      0.486283  
      91A      0.488151    92A      0.517703    93A      0.520962  
      94A      0.536329    95A      0.538651    96A      0.543486  
      97A      0.551710    98A      0.556206    99A      0.556382  
     100A      0.568280   101A      0.576474   102A      0.579793  
     103A      0.587928   104A      0.594249   105A      0.598939  
     106A      0.606823   107A      0.612416   108A      0.616080  
     109A      0.618715   110A      0.636538   111A      0.640153  
     112A      0.652504   113A      0.669282   114A      0.671337  
     115A      0.678032   116A      0.678185   117A      0.683874  
     118A      0.684137   119A      0.711533   120A      0.714698  
     121A      0.725758   122A      0.736483   123A      0.741238  
     124A      0.756522   125A      0.762698   126A      0.767400  
     127A      0.790929   128A      0.793606   129A      0.798624  
     130A      0.809747   131A      0.810879   132A      0.812836  
     133A      0.823669   134A      0.836973   135A      0.859999  
     136A      0.860397   137A      0.871425   138A      0.885765  
     139A      0.886927   140A      0.889823   141A      0.910135  
     142A      0.920018   143A      0.927283   144A      0.954351  
     145A      0.969118   146A      0.976964   147A      0.992211  
     148A      0.998360   149A      1.010706   150A      1.015830  
     151A      1.017404   152A      1.030676   153A      1.059399  
     154A      1.077353   155A      1.079019   156A      1.084552  
     157A      1.104047   158A      1.116425   159A      1.126983  
     160A      1.132889   161A      1.140497   162A      1.149565  
     163A      1.167170   164A      1.171284   165A      1.174458  
     166A      1.197955   167A      1.210985   168A      1.217445  
     169A      1.260721   170A      1.278406   171A      1.291037  
     172A      1.297375   173A      1.302539   174A      1.312960  
     175A      1.318512   176A      1.347964   177A      1.384525  
     178A      1.385028   179A      1.398145   180A      1.451143  
     181A      1.495324   182A      1.503288   183A      1.516245  
     184A      1.518410   185A      1.541759   186A      1.574127  
     187A      1.574285   188A      1.596381   189A      1.652159  
     190A      1.661355   191A      1.671505   192A      1.705286  
     193A      1.724477   194A      1.782643   195A      1.799067  
     196A      1.807063   197A      1.864950   198A      1.881477  
     199A      1.924391   200A      1.964987   201A      2.022005  
     202A      2.025429   203A      2.040115   204A      2.072981  
     205A      2.101495   206A      2.107054   207A      2.119870  
     208A      2.126759   209A      2.131827   210A      2.135965  
     211A      2.149949   212A      2.168670   213A      2.178815  
     214A      2.185572   215A      2.230220   216A      2.253205  
     217A      2.267082   218A      2.275963   219A      2.300924  
     220A      2.309154   221A      2.327637   222A      2.332072  
     223A      2.377315   224A      2.406157   225A      2.413891  
     226A      2.417758   227A      2.456267   228A      2.471339  
     229A      2.494457   230A      2.496919   231A      2.514025  
     232A      2.526384   233A      2.545345   234A      2.545977  
     235A      2.577408   236A      2.585743   237A      2.600413  
     238A      2.633765   239A      2.696804   240A      2.734093  
     241A      2.747025   242A      2.767089   243A      2.790917  
     244A      2.794149   245A      2.803444   246A      2.829417  
     247A      2.837641   248A      2.867213   249A      2.896341  
     250A      2.933877   251A      2.950018   252A      2.952738  
     253A      2.980862   254A      3.044110   255A      3.051201  
     256A      3.069910   257A      3.076803   258A      3.132512  
     259A      3.160252   260A      3.183559   261A      3.199163  
     262A      3.208795   263A      3.213995   264A      3.334816  
     265A      3.341478   266A      3.354572   267A      3.355380  
     268A      3.363534   269A      3.459304   270A      3.495057  
     271A      3.518552   272A      3.570255   273A      3.609526  
     274A      3.707886   275A      3.727363   276A      3.768294  
     277A      3.779033   278A      3.798852   279A      3.858597  
     280A      3.871361   281A      4.004520   282A      4.109022  
     283A      4.213412   284A      4.637397   285A      4.639453  
     286A      4.696615   287A      4.772458   288A      4.880741  
     289A      5.022072   290A      5.255316   291A      5.373840  
     292A      5.495469   293A      5.611042   294A      5.716962  
     295A      5.884578   296A      6.090381   297A      6.198813  
     298A     18.256148   299A     18.590780   300A     19.301109  
     301A     25.312549   302A     25.453956  

    Final Occupation by Irrep:
              A 
    DOCC [    18 ]

  @DF-RHF Final Energy:  -224.84369627898283

   => Energetics <=

    Nuclear Repulsion Energy =            164.0866958967185383
    One-Electron Energy =                -628.9319561045307410
    Two-Electron Energy =                 240.0015639288293698
    Total Energy =                       -224.8436962789828328

Computation Completed


Properties will be evaluated at   0.000000,   0.000000,   0.000000 [a0]

Properties computed using the SCF density matrix

  Nuclear Dipole Moment: [e a0]
     X:  -738.2203      Y: -1299.9950      Z:  -106.4674

  Electronic Dipole Moment: [e a0]
     X:   737.4165      Y:  1299.8317      Z:   107.7998

  Dipole Moment: [e a0]
     X:    -0.8038      Y:    -0.1633      Z:     1.3324     Total:     1.5646

  Dipole Moment: [D]
     X:    -2.0431      Y:    -0.4150      Z:     3.3867     Total:     3.9769


*** tstop() called on ds1 at Tue Sep 14 16:48:37 2021
Module time:
	user time   =      15.93 seconds =       0.27 minutes
	system time =       0.33 seconds =       0.01 minutes
	total time  =          4 seconds =       0.07 minutes
Total time:
	user time   =      53.98 seconds =       0.90 minutes
	system time =       1.16 seconds =       0.02 minutes
	total time  =         12 seconds =       0.20 minutes
  Constructing Basis Sets for SAPT...

   => Loading Basis Set <=

    Name: (AUG-CC-PVDZ AUX)
    Role: RIFIT
    Keyword: DF_BASIS_SAPT
    atoms 1-2, 10-11 entry N          line   158 file /theoryfs2/ds/csargent/miniconda3/envs/cle/share/psi4/basis/aug-cc-pvdz-ri.gbs 
    atoms 3-6, 12-15 entry H          line    30 file /theoryfs2/ds/csargent/miniconda3/envs/cle/share/psi4/basis/aug-cc-pvdz-ri.gbs 
    atoms 7-9, 16-18 entry C          line   112 file /theoryfs2/ds/csargent/miniconda3/envs/cle/share/psi4/basis/aug-cc-pvdz-ri.gbs 


  //>>>>>>>>>>>>>>>>>>>>>>>>>>>>>>>>>>>//
  //               SAPT0               //
  //<<<<<<<<<<<<<<<<<<<<<<<<<<<<<<<<<<<//


*** tstart() called on ds1
*** at Tue Sep 14 16:48:37 2021

        SAPT0  
    Ed Hohenstein
     6 June 2009

      Orbital Information
  --------------------------
    NSO        =       302
    NMO        =       302
    NRI        =       904
    NOCC A     =        18
    NOCC B     =        18
    FOCC A     =         5
    FOCC B     =         5
    NVIR A     =       284
    NVIR B     =       284

    Elst10,r            =    -0.000031952452 [Eh]
    Exch10              =     0.000000000000 [Eh]
    Exch10 (S^2)        =     0.000000000000 [Eh]

    Iter     Energy [mEh]          dE [mEh]         Residual      Time [s]
       1      -0.00002172       0.000021715       0.051414453             0
       2      -0.00002008      -0.000001631       0.013661162             0
       3      -0.00002231       0.000002230       0.005522696             0
       4      -0.00002266       0.000000348       0.001919893             1
       5      -0.00002260      -0.000000059       0.000927886             1
       6      -0.00002256      -0.000000039       0.000303255             1
       7      -0.00002257       0.000000008       0.000122613             1
       8      -0.00002258       0.000000004       0.000042468             1
       9      -0.00002258      -0.000000000       0.000013301             1
      10      -0.00002257      -0.000000001       0.000002321             1
      11      -0.00002257       0.000000000       0.000000690             1

    CHF Iterations converged


    Iter     Energy [mEh]          dE [mEh]         Residual      Time [s]
       1      -0.00002172       0.000021715       0.051414453             1
       2      -0.00002008      -0.000001631       0.013661162             1
       3      -0.00002231       0.000002230       0.005522696             1
       4      -0.00002266       0.000000348       0.001919893             1
       5      -0.00002260      -0.000000059       0.000927886             1
       6      -0.00002256      -0.000000039       0.000303255             1
       7      -0.00002257       0.000000008       0.000122613             1
       8      -0.00002258       0.000000004       0.000042468             1
       9      -0.00002258      -0.000000000       0.000013301             2
      10      -0.00002257      -0.000000001       0.000002321             2
      11      -0.00002257       0.000000000       0.000000690             2

    CHF Iterations converged

    Ind20,r (A<-B)      =    -0.000000022575 [Eh]
    Ind20,r (B<-A)      =    -0.000000022575 [Eh]
    Ind20,r             =    -0.000000045150 [Eh]
    Exch-Ind20,r (A<-B) =     0.000000000000 [Eh]
    Exch-Ind20,r (B<-A) =     0.000000000000 [Eh]
    Exch-Ind20,r        =     0.000000000000 [Eh]
    Disp20              =    -0.000000393983 [Eh]
    Disp20 (SS)         =    -0.000000196992 [Eh]
    Disp20 (OS)         =    -0.000000196992 [Eh]
    Exch-Disp20         =     0.000000000000 [Eh]
    Exch-Disp20 (SS)    =     0.000000000000 [Eh]
    Exch-Disp20 (OS)    =     0.000000000000 [Eh]

    SAPT Results 
  --------------------------------------------------------------------------------------------------------
    Electrostatics                 -0.03195245 [mEh]      -0.02005047 [kcal/mol]      -0.08389115 [kJ/mol]
      Elst10,r                     -0.03195245 [mEh]      -0.02005047 [kcal/mol]      -0.08389115 [kJ/mol]

    Exchange                        0.00000000 [mEh]       0.00000000 [kcal/mol]       0.00000000 [kJ/mol]
      Exch10                        0.00000000 [mEh]       0.00000000 [kcal/mol]       0.00000000 [kJ/mol]
      Exch10(S^2)                   0.00000000 [mEh]       0.00000000 [kcal/mol]       0.00000000 [kJ/mol]

    Induction                      -0.00003624 [mEh]      -0.00002274 [kcal/mol]      -0.00009514 [kJ/mol]
      Ind20,r                      -0.00004515 [mEh]      -0.00002833 [kcal/mol]      -0.00011854 [kJ/mol]
      Exch-Ind20,r                  0.00000000 [mEh]       0.00000000 [kcal/mol]       0.00000000 [kJ/mol]
      delta HF,r (2)                0.00000891 [mEh]       0.00000559 [kcal/mol]       0.00002340 [kJ/mol]

    Dispersion                     -0.00039398 [mEh]      -0.00024723 [kcal/mol]      -0.00103440 [kJ/mol]
      Disp20                       -0.00039398 [mEh]      -0.00024723 [kcal/mol]      -0.00103440 [kJ/mol]
      Exch-Disp20                   0.00000000 [mEh]       0.00000000 [kcal/mol]       0.00000000 [kJ/mol]
      Disp20 (SS)                  -0.00019699 [mEh]      -0.00012361 [kcal/mol]      -0.00051720 [kJ/mol]
      Disp20 (OS)                  -0.00019699 [mEh]      -0.00012361 [kcal/mol]      -0.00051720 [kJ/mol]
      Exch-Disp20 (SS)              0.00000000 [mEh]       0.00000000 [kcal/mol]       0.00000000 [kJ/mol]
      Exch-Disp20 (OS)              0.00000000 [mEh]       0.00000000 [kcal/mol]       0.00000000 [kJ/mol]

  Total HF                         -0.03198869 [mEh]      -0.02007321 [kcal/mol]      -0.08398629 [kJ/mol]
  Total SAPT0                      -0.03238267 [mEh]      -0.02032043 [kcal/mol]      -0.08502070 [kJ/mol]

  Special recipe for scaled SAPT0 (see Manual):
    Electrostatics sSAPT0          -0.03195245 [mEh]      -0.02005047 [kcal/mol]      -0.08389115 [kJ/mol]
    Exchange sSAPT0                 0.00000000 [mEh]       0.00000000 [kcal/mol]       0.00000000 [kJ/mol]
    Induction sSAPT0               -0.00003624 [mEh]      -0.00002274 [kcal/mol]      -0.00009514 [kJ/mol]
    Dispersion sSAPT0              -0.00039398 [mEh]      -0.00024723 [kcal/mol]      -0.00103440 [kJ/mol]
  Total sSAPT0                     -0.03238267 [mEh]      -0.02032043 [kcal/mol]      -0.08502070 [kJ/mol]
  --------------------------------------------------------------------------------------------------------

*** tstop() called on ds1 at Tue Sep 14 16:48:46 2021
Module time:
	user time   =      43.79 seconds =       0.73 minutes
	system time =       3.65 seconds =       0.06 minutes
	total time  =          9 seconds =       0.15 minutes
Total time:
	user time   =      98.60 seconds =       1.64 minutes
	system time =       4.85 seconds =       0.08 minutes
	total time  =         21 seconds =       0.35 minutes


Warning! sapt0 does not have an associated derived wavefunction.The returned wavefunction is the dimer SCF wavefunction.


    Psi4 stopped on: Tuesday, 14 September 2021 04:48PM
    Psi4 wall time for execution: 0:00:21.18

*** Psi4 exiting successfully. Buy a developer a beer!
