
    -----------------------------------------------------------------------
          Psi4: An Open-Source Ab Initio Electronic Structure Package
                               Psi4 1.4rc3 

                         Git: Rev {HEAD} 080dba6 


    D. G. A. Smith, L. A. Burns, A. C. Simmonett, R. M. Parrish,
    M. C. Schieber, R. Galvelis, P. Kraus, H. Kruse, R. Di Remigio,
    A. Alenaizan, A. M. James, S. Lehtola, J. P. Misiewicz, M. Scheurer,
    R. A. Shaw, J. B. Schriber, Y. Xie, Z. L. Glick, D. A. Sirianni,
    J. S. O'Brien, J. M. Waldrop, A. Kumar, E. G. Hohenstein,
    B. P. Pritchard, B. R. Brooks, H. F. Schaefer III, A. Yu. Sokolov,
    K. Patkowski, A. E. DePrince III, U. Bozkaya, R. A. King,
    F. A. Evangelista, J. M. Turney, T. D. Crawford, C. D. Sherrill,
    J. Chem. Phys. 152(18) 184108 (2020). https://doi.org/10.1063/5.0006002

                            Additional Code Authors
    E. T. Seidl, C. L. Janssen, E. F. Valeev, M. L. Leininger,
    J. F. Gonthier, R. M. Richard, H. R. McAlexander, M. Saitow, X. Wang,
    P. Verma, and M. H. Lechner

             Previous Authors, Complete List of Code Contributors,
                       and Citations for Specific Modules
    https://github.com/psi4/psi4/blob/master/codemeta.json
    https://github.com/psi4/psi4/graphs/contributors
    http://psicode.org/psi4manual/master/introduction.html#citing-psifour

    -----------------------------------------------------------------------


    Psi4 started on: Tuesday, 14 September 2021 06:09PM

    Process ID: 5145
    Host:       ds1
    PSIDATADIR: /theoryfs2/ds/csargent/miniconda3/envs/cle/share/psi4
    Memory:     500.0 MiB
    Threads:    6
    
  ==> Input File <==

--------------------------------------------------------------------------
# PSI4 file produced by CrystaLattE

# Generated from:               imidazole.xyz
# Psithon input for N-mer:      2mer-0+390
# Number of atoms per monomer:  [9, 9]
# Number of replicas:           2
# COM priority:                 1.785658878625e-05
# Minimum COM separations:      20.246 
# Separation priority:          2.830391174837e-05
# Minimum monomer separations:  17.364 
# Cutoff priority:              8.625718521034e-07
# Nuclear repulsion energy:     362.05300701278156

memory 7 GB

molecule Dimer_0_390 {
  N           -4.29309621      -3.06837431       5.30516231 
  N           -2.15847371      -2.92627296       1.72037448 
  H           -0.02545587      -6.35903575       2.22046452 
  H           -2.68566968      -6.53260241       6.61445954 
  H           -4.74388423      -0.00609006       2.75615968 
  H           -1.41045540      -2.24723147       0.00000000 
  C           -1.43737991      -5.07504848       2.94065891 
  C           -2.76900782      -5.14609916       5.13522880 
  C           -3.85955036      -1.77728198       3.21093411 
--
  N           28.84565259     -21.40350947      -2.78690955 
  N           30.98027509     -21.54561083      -6.37169738 
  H           33.11329293     -18.11284803      -5.87160734 
  H           30.45307912     -17.93928138      -1.47761232 
  H           28.39486458     -24.46579372      -5.33591219 
  H           31.72829340     -22.22465231      -8.09207186 
  C           31.70136889     -19.39683530      -5.15141295 
  C           30.36974098     -19.32578462      -2.95684306 
  C           29.27919844     -22.69460180      -4.88113775 
units = au
no_com
no_reorient
}

set {
  e_convergence 10
  d_convergence 10
  scf_type df
  mp2_type df
  cc_type df
  freeze_core true
}

energy('sapt0/aug-cc-pvdz')

--------------------------------------------------------------------------

  Memory set to   6.519 GiB by Python driver.

Scratch directory: /scratch/csargent/psi4.31446.79897/

Scratch directory: /scratch/csargent/psi4.31446.79897/

  //>>>>>>>>>>>>>>>>>>>>>>>>>>>>>>>>>>>//
  //              Dimer HF             //
  //<<<<<<<<<<<<<<<<<<<<<<<<<<<<<<<<<<<//


*** tstart() called on ds1
*** at Tue Sep 14 18:09:58 2021

   => Loading Basis Set <=

    Name: AUG-CC-PVDZ
    Role: ORBITAL
    Keyword: BASIS
    atoms 1-2, 10-11 entry N          line   218 file /theoryfs2/ds/csargent/miniconda3/envs/cle/share/psi4/basis/aug-cc-pvdz.gbs 
    atoms 3-6, 12-15 entry H          line    40 file /theoryfs2/ds/csargent/miniconda3/envs/cle/share/psi4/basis/aug-cc-pvdz.gbs 
    atoms 7-9, 16-18 entry C          line   182 file /theoryfs2/ds/csargent/miniconda3/envs/cle/share/psi4/basis/aug-cc-pvdz.gbs 


         ---------------------------------------------------------
                                   SCF
               by Justin Turney, Rob Parrish, Andy Simmonett
                          and Daniel G. A. Smith
                              RHF Reference
                        6 Threads,   6675 MiB Core
         ---------------------------------------------------------

  ==> Geometry <==

    Molecular point group: c1
    Full point group: C1

    Geometry (in Bohr), charge = 0, multiplicity = 1:

       Center              X                  Y                   Z               Mass       
    ------------   -----------------  -----------------  -----------------  -----------------
         N           -4.293096210000    -3.068374310000     5.305162310000    14.003074004430
         N           -2.158473710000    -2.926272960000     1.720374480000    14.003074004430
         H           -0.025455870000    -6.359035750000     2.220464520000     1.007825032230
         H           -2.685669680000    -6.532602410000     6.614459540000     1.007825032230
         H           -4.743884230000    -0.006090060000     2.756159680000     1.007825032230
         H           -1.410455400000    -2.247231470000     0.000000000000     1.007825032230
         C           -1.437379910000    -5.075048480000     2.940658910000    12.000000000000
         C           -2.769007820000    -5.146099160000     5.135228800000    12.000000000000
         C           -3.859550360000    -1.777281980000     3.210934110000    12.000000000000
         N           28.845652590000   -21.403509470000    -2.786909550000    14.003074004430
         N           30.980275090000   -21.545610830000    -6.371697380000    14.003074004430
         H           33.113292930000   -18.112848030000    -5.871607340000     1.007825032230
         H           30.453079120000   -17.939281380000    -1.477612320000     1.007825032230
         H           28.394864580000   -24.465793720000    -5.335912190000     1.007825032230
         H           31.728293400000   -22.224652310000    -8.092071860000     1.007825032230
         C           31.701368890000   -19.396835300000    -5.151412950000    12.000000000000
         C           30.369740980000   -19.325784620000    -2.956843060000    12.000000000000
         C           29.279198440000   -22.694601800000    -4.881137750000    12.000000000000

  Running in c1 symmetry.

  Rotational constants: A =      0.02157  B =      0.00064  C =      0.00063 [cm^-1]
  Rotational constants: A =    646.54012  B =     19.23516  C =     18.75094 [MHz]
  Nuclear repulsion =  362.053007139798069

  Charge       = 0
  Multiplicity = 1
  Electrons    = 72
  Nalpha       = 36
  Nbeta        = 36

  ==> Algorithm <==

  SCF Algorithm Type is DF.
  DIIS enabled.
  MOM disabled.
  Fractional occupation disabled.
  Guess Type is SAD.
  Energy threshold   = 1.00e-10
  Density threshold  = 1.00e-10
  Integral threshold = 1.00e-12

  ==> Primary Basis <==

  Basis Set: AUG-CC-PVDZ
    Blend: AUG-CC-PVDZ
    Number of shells: 130
    Number of basis functions: 302
    Number of Cartesian functions: 322
    Spherical Harmonics?: true
    Max angular momentum: 2

   => Loading Basis Set <=

    Name: (AUG-CC-PVDZ AUX)
    Role: JKFIT
    Keyword: DF_BASIS_SCF
    atoms 1-2, 10-11 entry N          line   212 file /theoryfs2/ds/csargent/miniconda3/envs/cle/share/psi4/basis/aug-cc-pvdz-jkfit.gbs 
    atoms 3-6, 12-15 entry H          line    70 file /theoryfs2/ds/csargent/miniconda3/envs/cle/share/psi4/basis/aug-cc-pvdz-jkfit.gbs 
    atoms 7-9, 16-18 entry C          line   154 file /theoryfs2/ds/csargent/miniconda3/envs/cle/share/psi4/basis/aug-cc-pvdz-jkfit.gbs 

  ==> Integral Setup <==

  ==> DiskDFJK: Density-Fitted J/K Matrices <==

    J tasked:                  Yes
    K tasked:                  Yes
    wK tasked:                  No
    OpenMP threads:              6
    Integrals threads:           6
    Memory [MiB]:             5006
    Algorithm:                Core
    Integral Cache:           SAVE
    Schwarz Cutoff:          1E-12
    Fitting Condition:       1E-10

   => Auxiliary Basis Set <=

  Basis Set: (AUG-CC-PVDZ AUX)
    Blend: AUG-CC-PVDZ-JKFIT
    Number of shells: 376
    Number of basis functions: 1116
    Number of Cartesian functions: 1290
    Spherical Harmonics?: true
    Max angular momentum: 3

  Minimum eigenvalue in the overlap matrix is 2.1836852160E-05.
  Reciprocal condition number of the overlap matrix is 1.8394336527E-06.
    Using symmetric orthogonalization.

  ==> Pre-Iterations <==

  SCF Guess: Superposition of Atomic Densities via on-the-fly atomic UHF (no occupation information).

   -------------------------
    Irrep   Nso     Nmo    
   -------------------------
     A        302     302 
   -------------------------
    Total     302     302
   -------------------------

  ==> Iterations <==

                           Total Energy        Delta E     RMS |[F,P]|

   @DF-RHF iter SAD:  -449.11714339450248   -4.49117e+02   0.00000e+00 
   @DF-RHF iter   1:  -449.39615109867486   -2.79008e-01   2.30609e-03 DIIS
   @DF-RHF iter   2:  -449.61065883851938   -2.14508e-01   1.31148e-03 DIIS
   @DF-RHF iter   3:  -449.68338935518386   -7.27305e-02   2.46094e-04 DIIS
   @DF-RHF iter   4:  -449.68675971848489   -3.37036e-03   1.12986e-04 DIIS
   @DF-RHF iter   5:  -449.68736280513667   -6.03087e-04   1.78827e-05 DIIS
   @DF-RHF iter   6:  -449.68739747462109   -3.46695e-05   7.94617e-06 DIIS
   @DF-RHF iter   7:  -449.68740365112507   -6.17650e-06   3.10476e-06 DIIS
   @DF-RHF iter   8:  -449.68740511553887   -1.46441e-06   1.09987e-06 DIIS
   @DF-RHF iter   9:  -449.68740533727527   -2.21736e-07   2.65841e-07 DIIS
   @DF-RHF iter  10:  -449.68740534835496   -1.10797e-08   1.03650e-07 DIIS
   @DF-RHF iter  11:  -449.68740535000711   -1.65215e-09   4.62563e-08 DIIS
   @DF-RHF iter  12:  -449.68740535031111   -3.03999e-10   1.37338e-08 DIIS
   @DF-RHF iter  13:  -449.68740535033766   -2.65459e-11   5.07783e-09 DIIS
   @DF-RHF iter  14:  -449.68740535034090   -3.24007e-12   2.24094e-09 DIIS
   @DF-RHF iter  15:  -449.68740535034186   -9.66338e-13   7.48906e-10 DIIS
   @DF-RHF iter  16:  -449.68740535034169    1.70530e-13   3.36079e-10 DIIS
   @DF-RHF iter  17:  -449.68740535034232   -6.25278e-13   7.80422e-11 DIIS
  Energy and wave function converged.


  ==> Post-Iterations <==

    Orbital Energies [Eh]
    ---------------------

    Doubly Occupied:                                                      

       1A    -15.637661     2A    -15.636323     3A    -15.551810  
       4A    -15.550480     5A    -11.301507     6A    -11.300176  
       7A    -11.263755     8A    -11.262369     9A    -11.246249  
      10A    -11.244863    11A     -1.353460    12A     -1.352113  
      13A     -1.169692    14A     -1.168350    15A     -1.012692  
      16A     -1.011329    17A     -0.824981    18A     -0.823638  
      19A     -0.804325    20A     -0.802962    21A     -0.761257  
      22A     -0.759905    23A     -0.610689    24A     -0.609336  
      25A     -0.604551    26A     -0.603204    27A     -0.602515  
      28A     -0.601135    29A     -0.571536    30A     -0.570178  
      31A     -0.436077    32A     -0.434745    33A     -0.401060  
      34A     -0.399716    35A     -0.321282    36A     -0.319911  

    Virtual:                                                              

      37A      0.024836    38A      0.026124    39A      0.041018  
      40A      0.042451    41A      0.049418    42A      0.050778  
      43A      0.061307    44A      0.062701    45A      0.088484  
      46A      0.089819    47A      0.100823    48A      0.102119  
      49A      0.120227    50A      0.121555    51A      0.124959  
      52A      0.126405    53A      0.132910    54A      0.133191  
      55A      0.134280    56A      0.134609    57A      0.140326  
      58A      0.141726    59A      0.155913    60A      0.157427  
      61A      0.158145    62A      0.159354    63A      0.171397  
      64A      0.172843    65A      0.177597    66A      0.178931  
      67A      0.186656    68A      0.187940    69A      0.210960  
      70A      0.212274    71A      0.219658    72A      0.221053  
      73A      0.231758    74A      0.233103    75A      0.240808  
      76A      0.242186    77A      0.261023    78A      0.262387  
      79A      0.267219    80A      0.268520    81A      0.277302  
      82A      0.278629    83A      0.301141    84A      0.302495  
      85A      0.313865    86A      0.315130    87A      0.337602  
      88A      0.338996    89A      0.360900    90A      0.362304  
      91A      0.370150    92A      0.371506    93A      0.379223  
      94A      0.380568    95A      0.387704    96A      0.389080  
      97A      0.396514    98A      0.397890    99A      0.416448  
     100A      0.417784   101A      0.428404   102A      0.429747  
     103A      0.451469   104A      0.452820   105A      0.465762  
     106A      0.467084   107A      0.480644   108A      0.481998  
     109A      0.485692   110A      0.487091   111A      0.487566  
     112A      0.488931   113A      0.551113   114A      0.552457  
     115A      0.555793   116A      0.557172   117A      0.567691  
     118A      0.569060   119A      0.575888   120A      0.577197  
     121A      0.593655   122A      0.595015   123A      0.598354  
     124A      0.599720   125A      0.615482   126A      0.616850  
     127A      0.635940   128A      0.637339   129A      0.651914  
     130A      0.653268   131A      0.668695   132A      0.670067  
     133A      0.670740   134A      0.672107   135A      0.677597  
     136A      0.678924   137A      0.683283   138A      0.684685  
     139A      0.714103   140A      0.715465   141A      0.725176  
     142A      0.726531   143A      0.740650   144A      0.742005  
     145A      0.762106   146A      0.763467   147A      0.766805  
     148A      0.768160   149A      0.790337   150A      0.791699  
     151A      0.793014   152A      0.794322   153A      0.809157  
     154A      0.810506   155A      0.859805   156A      0.861160  
     157A      0.870827   158A      0.872196   159A      0.885170  
     160A      0.886524   161A      0.889220   162A      0.890641  
     163A      0.953753   164A      0.955110   165A      0.976373  
     166A      0.977707   167A      0.997773   168A      0.999105  
     169A      1.010102   170A      1.011443   171A      1.016804  
     172A      1.018172   173A      1.030090   174A      1.031431  
     175A      1.076758   176A      1.078094   177A      1.083959  
     178A      1.085295   179A      1.126387   180A      1.127756  
     181A      1.139904   182A      1.141260   183A      1.148974  
     184A      1.150326   185A      1.166577   186A      1.167938  
     187A      1.216853   188A      1.218197   189A      1.260130  
     190A      1.261519   191A      1.301943   192A      1.303317  
     193A      1.384440   194A      1.385768   195A      1.397551  
     196A      1.398897   197A      1.450552   198A      1.451895  
     199A      1.502697   200A      1.504043   201A      1.517814  
     202A      1.519167   203A      1.573531   204A      1.573689  
     205A      1.574909   206A      1.575060   207A      1.595786  
     208A      1.597154   209A      1.651559   210A      1.652914  
     211A      1.670912   212A      1.672298   213A      1.704686  
     214A      1.706077   215A      1.723888   216A      1.725198  
     217A      1.782046   218A      1.783429   219A      1.798471  
     220A      1.799854   221A      1.806466   222A      1.807850  
     223A      1.864358   224A      1.865706   225A      1.880890  
     226A      1.882210   227A      1.923798   228A      1.925134  
     229A      1.964392   230A      1.965740   231A      2.021417  
     232A      2.022776   233A      2.024839   234A      2.026193  
     235A      2.072387   236A      2.073745   237A      2.106461  
     238A      2.107827   239A      2.126165   240A      2.127545  
     241A      2.135367   242A      2.136750   243A      2.168078  
     244A      2.169444   245A      2.178224   246A      2.179578  
     247A      2.266490   248A      2.267837   249A      2.275372  
     250A      2.276707   251A      2.300334   252A      2.301656  
     253A      2.331480   254A      2.332818   255A      2.417163  
     256A      2.418546   257A      2.496331   258A      2.497667  
     259A      2.513432   260A      2.514778   261A      2.544760  
     262A      2.546081   263A      2.585150   264A      2.586518  
     265A      2.633172   266A      2.634533   267A      2.733497  
     268A      2.734881   269A      2.746432   270A      2.747772  
     271A      2.766494   272A      2.767863   273A      2.793555  
     274A      2.794905   275A      2.802850   276A      2.804194  
     277A      2.837052   278A      2.838399   279A      2.866621  
     280A      2.867953   281A      2.952146   282A      2.953493  
     283A      2.980268   284A      2.981607   285A      3.050607  
     286A      3.051981   287A      3.069317   288A      3.070681  
     289A      3.198571   290A      3.199908   291A      3.208203  
     292A      3.209553   293A      3.334225   294A      3.335560  
     295A      3.353978   296A      3.355328   297A      3.517957  
     298A      3.519307   299A      3.767701   300A      3.769047  
     301A      4.108429   302A      4.109800  

    Final Occupation by Irrep:
              A 
    DOCC [    36 ]

  @DF-RHF Final Energy:  -449.68740535034232

   => Energetics <=

    Nuclear Repulsion Energy =            362.0530071397980691
    One-Electron Energy =               -1325.6291623101212735
    Two-Electron Energy =                 513.8887498199808306
    Total Energy =                       -449.6874053503423738

Computation Completed


Properties will be evaluated at   0.000000,   0.000000,   0.000000 [a0]

Properties computed using the SCF density matrix

  Nuclear Dipole Moment: [e a0]
     X:   988.1508      Y:  -880.9878      Z:   -34.3330

  Electronic Dipole Moment: [e a0]
     X:  -986.5406      Y:   880.9855      Z:    31.6689

  Dipole Moment: [e a0]
     X:     1.6102      Y:    -0.0024      Z:    -2.6642     Total:     3.1130

  Dipole Moment: [D]
     X:     4.0927      Y:    -0.0060      Z:    -6.7717     Total:     7.9124


*** tstop() called on ds1 at Tue Sep 14 18:10:03 2021
Module time:
	user time   =      22.36 seconds =       0.37 minutes
	system time =       0.83 seconds =       0.01 minutes
	total time  =          5 seconds =       0.08 minutes
Total time:
	user time   =      22.36 seconds =       0.37 minutes
	system time =       0.83 seconds =       0.01 minutes
	total time  =          5 seconds =       0.08 minutes

  //>>>>>>>>>>>>>>>>>>>>>>>>>>>>>>>>>>>//
  //            Monomer A HF           //
  //<<<<<<<<<<<<<<<<<<<<<<<<<<<<<<<<<<<//


*** tstart() called on ds1
*** at Tue Sep 14 18:10:03 2021

   => Loading Basis Set <=

    Name: AUG-CC-PVDZ
    Role: ORBITAL
    Keyword: BASIS
    atoms 1-2, 10-11 entry N          line   218 file /theoryfs2/ds/csargent/miniconda3/envs/cle/share/psi4/basis/aug-cc-pvdz.gbs 
    atoms 3-6, 12-15 entry H          line    40 file /theoryfs2/ds/csargent/miniconda3/envs/cle/share/psi4/basis/aug-cc-pvdz.gbs 
    atoms 7-9, 16-18 entry C          line   182 file /theoryfs2/ds/csargent/miniconda3/envs/cle/share/psi4/basis/aug-cc-pvdz.gbs 


         ---------------------------------------------------------
                                   SCF
               by Justin Turney, Rob Parrish, Andy Simmonett
                          and Daniel G. A. Smith
                              RHF Reference
                        6 Threads,   6675 MiB Core
         ---------------------------------------------------------

  ==> Geometry <==

    Molecular point group: c1
    Full point group: C1

    Geometry (in Bohr), charge = 0, multiplicity = 1:

       Center              X                  Y                   Z               Mass       
    ------------   -----------------  -----------------  -----------------  -----------------
         N           -4.293096210000    -3.068374310000     5.305162310000    14.003074004430
         N           -2.158473710000    -2.926272960000     1.720374480000    14.003074004430
         H           -0.025455870000    -6.359035750000     2.220464520000     1.007825032230
         H           -2.685669680000    -6.532602410000     6.614459540000     1.007825032230
         H           -4.743884230000    -0.006090060000     2.756159680000     1.007825032230
         H           -1.410455400000    -2.247231470000     0.000000000000     1.007825032230
         C           -1.437379910000    -5.075048480000     2.940658910000    12.000000000000
         C           -2.769007820000    -5.146099160000     5.135228800000    12.000000000000
         C           -3.859550360000    -1.777281980000     3.210934110000    12.000000000000
      Gh(N)          28.845652590000   -21.403509470000    -2.786909550000    14.003074004430
      Gh(N)          30.980275090000   -21.545610830000    -6.371697380000    14.003074004430
      Gh(H)          33.113292930000   -18.112848030000    -5.871607340000     1.007825032230
      Gh(H)          30.453079120000   -17.939281380000    -1.477612320000     1.007825032230
      Gh(H)          28.394864580000   -24.465793720000    -5.335912190000     1.007825032230
      Gh(H)          31.728293400000   -22.224652310000    -8.092071860000     1.007825032230
      Gh(C)          31.701368890000   -19.396835300000    -5.151412950000    12.000000000000
      Gh(C)          30.369740980000   -19.325784620000    -2.956843060000    12.000000000000
      Gh(C)          29.279198440000   -22.694601800000    -4.881137750000    12.000000000000

  Running in c1 symmetry.

  Rotational constants: A =      0.02157  B =      0.00064  C =      0.00063 [cm^-1]
  Rotational constants: A =    646.54012  B =     19.23516  C =     18.75094 [MHz]
  Nuclear repulsion =  164.086695994184396

  Charge       = 0
  Multiplicity = 1
  Electrons    = 36
  Nalpha       = 18
  Nbeta        = 18

  ==> Algorithm <==

  SCF Algorithm Type is DF.
  DIIS enabled.
  MOM disabled.
  Fractional occupation disabled.
  Guess Type is SAD.
  Energy threshold   = 1.00e-10
  Density threshold  = 1.00e-10
  Integral threshold = 1.00e-12

  ==> Primary Basis <==

  Basis Set: AUG-CC-PVDZ
    Blend: AUG-CC-PVDZ
    Number of shells: 130
    Number of basis functions: 302
    Number of Cartesian functions: 322
    Spherical Harmonics?: true
    Max angular momentum: 2

   => Loading Basis Set <=

    Name: (AUG-CC-PVDZ AUX)
    Role: JKFIT
    Keyword: DF_BASIS_SCF
    atoms 1-2, 10-11 entry N          line   212 file /theoryfs2/ds/csargent/miniconda3/envs/cle/share/psi4/basis/aug-cc-pvdz-jkfit.gbs 
    atoms 3-6, 12-15 entry H          line    70 file /theoryfs2/ds/csargent/miniconda3/envs/cle/share/psi4/basis/aug-cc-pvdz-jkfit.gbs 
    atoms 7-9, 16-18 entry C          line   154 file /theoryfs2/ds/csargent/miniconda3/envs/cle/share/psi4/basis/aug-cc-pvdz-jkfit.gbs 

  ==> Integral Setup <==

  ==> DiskDFJK: Density-Fitted J/K Matrices <==

    J tasked:                  Yes
    K tasked:                  Yes
    wK tasked:                  No
    OpenMP threads:              6
    Integrals threads:           6
    Memory [MiB]:             5006
    Algorithm:                Core
    Integral Cache:           LOAD
    Schwarz Cutoff:          1E-12
    Fitting Condition:       1E-10

   => Auxiliary Basis Set <=

  Basis Set: (AUG-CC-PVDZ AUX)
    Blend: AUG-CC-PVDZ-JKFIT
    Number of shells: 376
    Number of basis functions: 1116
    Number of Cartesian functions: 1290
    Spherical Harmonics?: true
    Max angular momentum: 3

  Minimum eigenvalue in the overlap matrix is 2.1836852160E-05.
  Reciprocal condition number of the overlap matrix is 1.8394336527E-06.
    Using symmetric orthogonalization.

  ==> Pre-Iterations <==

  SCF Guess: Superposition of Atomic Densities via on-the-fly atomic UHF (no occupation information).

   -------------------------
    Irrep   Nso     Nmo    
   -------------------------
     A        302     302 
   -------------------------
    Total     302     302
   -------------------------

  ==> Iterations <==

                           Total Energy        Delta E     RMS |[F,P]|

   @DF-RHF iter SAD:  -224.55857169484227   -2.24559e+02   0.00000e+00 
   @DF-RHF iter   1:  -224.69806464807880   -1.39493e-01   1.63067e-03 DIIS
   @DF-RHF iter   2:  -224.80532026635447   -1.07256e-01   9.27384e-04 DIIS
   @DF-RHF iter   3:  -224.84168817025255   -3.63679e-02   1.74019e-04 DIIS
   @DF-RHF iter   4:  -224.84337342231899   -1.68525e-03   7.98972e-05 DIIS
   @DF-RHF iter   5:  -224.84367500303205   -3.01581e-04   1.26452e-05 DIIS
   @DF-RHF iter   6:  -224.84369234006553   -1.73370e-05   5.61871e-06 DIIS
   @DF-RHF iter   7:  -224.84369542813477   -3.08807e-06   2.19503e-06 DIIS
   @DF-RHF iter   8:  -224.84369616005375   -7.31919e-07   7.77587e-07 DIIS
   @DF-RHF iter   9:  -224.84369627084735   -1.10794e-07   1.87961e-07 DIIS
   @DF-RHF iter  10:  -224.84369627638304   -5.53570e-09   7.33125e-08 DIIS
   @DF-RHF iter  11:  -224.84369627720918   -8.26134e-10   3.26918e-08 DIIS
   @DF-RHF iter  12:  -224.84369627736137   -1.52198e-10   9.70884e-09 DIIS
   @DF-RHF iter  13:  -224.84369627737456   -1.31877e-11   3.58840e-09 DIIS
   @DF-RHF iter  14:  -224.84369627737607   -1.50635e-12   1.58275e-09 DIIS
   @DF-RHF iter  15:  -224.84369627737613   -5.68434e-14   5.27556e-10 DIIS
   @DF-RHF iter  16:  -224.84369627737632   -1.98952e-13   2.34517e-10 DIIS
   @DF-RHF iter  17:  -224.84369627737675   -4.26326e-13   4.71137e-11 DIIS
  Energy and wave function converged.


  ==> Post-Iterations <==

    Orbital Energies [Eh]
    ---------------------

    Doubly Occupied:                                                      

       1A    -15.637071     2A    -15.551216     3A    -11.300916  
       4A    -11.263160     5A    -11.245653     6A     -1.352867  
       7A     -1.169098     8A     -1.012098     9A     -0.824390  
      10A     -0.803731    11A     -0.760666    12A     -0.610096  
      13A     -0.603958    14A     -0.601922    15A     -0.570942  
      16A     -0.435483    17A     -0.400464    18A     -0.320685  

    Virtual:                                                              

      19A      0.022083    20A      0.025388    21A      0.039642  
      22A      0.041579    23A      0.043115    24A      0.049997  
      25A      0.061864    26A      0.067254    27A      0.076021  
      28A      0.085723    29A      0.089096    30A      0.097087  
      31A      0.101397    32A      0.120831    33A      0.124111  
      34A      0.124514    35A      0.125577    36A      0.126355  
      37A      0.126802    38A      0.133472    39A      0.133621  
      40A      0.133772    41A      0.137646    42A      0.140942  
      43A      0.156226    44A      0.156500    45A      0.158699  
      46A      0.171988    47A      0.178189    48A      0.187224  
      49A      0.191717    50A      0.207277    51A      0.208892  
      52A      0.211559    53A      0.212018    54A      0.219816  
      55A      0.220268    56A      0.222081    57A      0.232359  
      58A      0.232615    59A      0.241408    60A      0.261605  
      61A      0.267803    62A      0.271677    63A      0.277911  
      64A      0.298915    65A      0.301746    66A      0.305970  
      67A      0.314442    68A      0.318765    69A      0.338197  
      70A      0.359699    71A      0.361488    72A      0.370745  
      73A      0.375020    74A      0.379800    75A      0.388291  
      76A      0.392961    77A      0.397097    78A      0.417031  
      79A      0.426924    80A      0.429000    81A      0.434716  
      82A      0.439898    83A      0.448569    84A      0.451671  
      85A      0.452059    86A      0.466350    87A      0.467676  
      88A      0.480576    89A      0.481229    90A      0.486283  
      91A      0.488151    92A      0.516881    93A      0.520123  
      94A      0.535527    95A      0.537783    96A      0.542664  
      97A      0.551710    98A      0.555386    99A      0.556382  
     100A      0.568280   101A      0.576474   102A      0.578924  
     103A      0.587103   104A      0.594249   105A      0.598939  
     106A      0.605974   107A      0.611601   108A      0.616080  
     109A      0.617888   110A      0.636538   111A      0.639296  
     112A      0.652504   113A      0.669282   114A      0.671337  
     115A      0.677194   116A      0.678185   117A      0.683319  
     118A      0.683874   119A      0.710740   120A      0.714698  
     121A      0.725758   122A      0.735638   123A      0.741238  
     124A      0.755681   125A      0.762698   126A      0.767400  
     127A      0.790929   128A      0.793606   129A      0.797776  
     130A      0.809747   131A      0.810019   132A      0.812031  
     133A      0.822804   134A      0.836140   135A      0.859162  
     136A      0.860398   137A      0.871425   138A      0.885765  
     139A      0.886109   140A      0.889823   141A      0.909292  
     142A      0.919203   143A      0.926457   144A      0.954351  
     145A      0.968292   146A      0.976964   147A      0.991380  
     148A      0.998360   149A      1.010706   150A      1.015002  
     151A      1.017404   152A      1.030676   153A      1.058561  
     154A      1.077353   155A      1.078174   156A      1.084552  
     157A      1.103219   158A      1.115570   159A      1.126983  
     160A      1.132034   161A      1.140497   162A      1.149565  
     163A      1.167170   164A      1.170445   165A      1.173630  
     166A      1.197125   167A      1.210150   168A      1.217445  
     169A      1.260721   170A      1.277601   171A      1.290220  
     172A      1.296562   173A      1.302539   174A      1.312128  
     175A      1.317682   176A      1.347153   177A      1.383677  
     178A      1.385028   179A      1.398145   180A      1.451143  
     181A      1.494499   182A      1.503288   183A      1.515417  
     184A      1.518410   185A      1.540922   186A      1.574127  
     187A      1.574285   188A      1.596381   189A      1.652159  
     190A      1.660518   191A      1.671505   192A      1.705286  
     193A      1.724477   194A      1.782643   195A      1.799067  
     196A      1.807063   197A      1.864950   198A      1.881477  
     199A      1.924391   200A      1.964987   201A      2.022005  
     202A      2.025429   203A      2.039272   204A      2.072981  
     205A      2.100671   206A      2.107054   207A      2.119060  
     208A      2.126759   209A      2.130985   210A      2.135965  
     211A      2.149101   212A      2.168670   213A      2.178815  
     214A      2.184706   215A      2.229364   216A      2.252378  
     217A      2.267082   218A      2.275963   219A      2.300924  
     220A      2.308294   221A      2.326822   222A      2.332072  
     223A      2.376503   224A      2.405287   225A      2.413023  
     226A      2.417758   227A      2.455406   228A      2.470506  
     229A      2.493602   230A      2.496919   231A      2.514025  
     232A      2.525557   233A      2.545151   234A      2.545345  
     235A      2.576561   236A      2.585743   237A      2.599563  
     238A      2.633765   239A      2.695935   240A      2.734093  
     241A      2.747025   242A      2.767089   243A      2.790109  
     244A      2.794149   245A      2.803444   246A      2.828574  
     247A      2.837641   248A      2.867213   249A      2.895543  
     250A      2.933008   251A      2.949163   252A      2.952738  
     253A      2.980862   254A      3.043291   255A      3.051201  
     256A      3.069910   257A      3.075968   258A      3.131697  
     259A      3.159425   260A      3.182733   261A      3.199163  
     262A      3.208795   263A      3.213172   264A      3.334816  
     265A      3.340638   266A      3.354550   267A      3.354572  
     268A      3.362677   269A      3.458468   270A      3.494260  
     271A      3.518552   272A      3.569397   273A      3.608726  
     274A      3.707047   275A      3.726528   276A      3.768294  
     277A      3.778192   278A      3.798005   279A      3.857747  
     280A      3.870541   281A      4.003699   282A      4.109022  
     283A      4.212582   284A      4.636552   285A      4.638631  
     286A      4.695784   287A      4.771627   288A      4.879899  
     289A      5.021238   290A      5.254512   291A      5.373012  
     292A      5.494657   293A      5.610194   294A      5.716110  
     295A      5.883756   296A      6.089527   297A      6.197995  
     298A     18.255289   299A     18.589978   300A     19.300249  
     301A     25.311763   302A     25.453101  

    Final Occupation by Irrep:
              A 
    DOCC [    18 ]

  @DF-RHF Final Energy:  -224.84369627737675

   => Energetics <=

    Nuclear Repulsion Energy =            164.0866959941843959
    One-Electron Energy =                -628.9319562989173846
    Two-Electron Energy =                 240.0015640273562099
    Total Energy =                       -224.8436962773767505

Computation Completed


Properties will be evaluated at   0.000000,   0.000000,   0.000000 [a0]

Properties computed using the SCF density matrix

  Nuclear Dipole Moment: [e a0]
     X:  -102.4221      Y:  -129.0981      Z:   128.4908

  Electronic Dipole Moment: [e a0]
     X:   103.2259      Y:   129.2613      Z:  -129.8232

  Dipole Moment: [e a0]
     X:     0.8038      Y:     0.1633      Z:    -1.3324     Total:     1.5646

  Dipole Moment: [D]
     X:     2.0431      Y:     0.4150      Z:    -3.3867     Total:     3.9769


*** tstop() called on ds1 at Tue Sep 14 18:10:06 2021
Module time:
	user time   =      16.12 seconds =       0.27 minutes
	system time =       0.69 seconds =       0.01 minutes
	total time  =          3 seconds =       0.05 minutes
Total time:
	user time   =      38.62 seconds =       0.64 minutes
	system time =       1.52 seconds =       0.03 minutes
	total time  =          8 seconds =       0.13 minutes

  //>>>>>>>>>>>>>>>>>>>>>>>>>>>>>>>>>>>//
  //            Monomer B HF           //
  //<<<<<<<<<<<<<<<<<<<<<<<<<<<<<<<<<<<//


*** tstart() called on ds1
*** at Tue Sep 14 18:10:06 2021

   => Loading Basis Set <=

    Name: AUG-CC-PVDZ
    Role: ORBITAL
    Keyword: BASIS
    atoms 1-2, 10-11 entry N          line   218 file /theoryfs2/ds/csargent/miniconda3/envs/cle/share/psi4/basis/aug-cc-pvdz.gbs 
    atoms 3-6, 12-15 entry H          line    40 file /theoryfs2/ds/csargent/miniconda3/envs/cle/share/psi4/basis/aug-cc-pvdz.gbs 
    atoms 7-9, 16-18 entry C          line   182 file /theoryfs2/ds/csargent/miniconda3/envs/cle/share/psi4/basis/aug-cc-pvdz.gbs 


         ---------------------------------------------------------
                                   SCF
               by Justin Turney, Rob Parrish, Andy Simmonett
                          and Daniel G. A. Smith
                              RHF Reference
                        6 Threads,   6675 MiB Core
         ---------------------------------------------------------

  ==> Geometry <==

    Molecular point group: c1
    Full point group: C1

    Geometry (in Bohr), charge = 0, multiplicity = 1:

       Center              X                  Y                   Z               Mass       
    ------------   -----------------  -----------------  -----------------  -----------------
      Gh(N)          -4.293096210000    -3.068374310000     5.305162310000    14.003074004430
      Gh(N)          -2.158473710000    -2.926272960000     1.720374480000    14.003074004430
      Gh(H)          -0.025455870000    -6.359035750000     2.220464520000     1.007825032230
      Gh(H)          -2.685669680000    -6.532602410000     6.614459540000     1.007825032230
      Gh(H)          -4.743884230000    -0.006090060000     2.756159680000     1.007825032230
      Gh(H)          -1.410455400000    -2.247231470000     0.000000000000     1.007825032230
      Gh(C)          -1.437379910000    -5.075048480000     2.940658910000    12.000000000000
      Gh(C)          -2.769007820000    -5.146099160000     5.135228800000    12.000000000000
      Gh(C)          -3.859550360000    -1.777281980000     3.210934110000    12.000000000000
         N           28.845652590000   -21.403509470000    -2.786909550000    14.003074004430
         N           30.980275090000   -21.545610830000    -6.371697380000    14.003074004430
         H           33.113292930000   -18.112848030000    -5.871607340000     1.007825032230
         H           30.453079120000   -17.939281380000    -1.477612320000     1.007825032230
         H           28.394864580000   -24.465793720000    -5.335912190000     1.007825032230
         H           31.728293400000   -22.224652310000    -8.092071860000     1.007825032230
         C           31.701368890000   -19.396835300000    -5.151412950000    12.000000000000
         C           30.369740980000   -19.325784620000    -2.956843060000    12.000000000000
         C           29.279198440000   -22.694601800000    -4.881137750000    12.000000000000

  Running in c1 symmetry.

  Rotational constants: A =      0.02157  B =      0.00064  C =      0.00063 [cm^-1]
  Rotational constants: A =    646.54012  B =     19.23516  C =     18.75094 [MHz]
  Nuclear repulsion =  164.086695984495435

  Charge       = 0
  Multiplicity = 1
  Electrons    = 36
  Nalpha       = 18
  Nbeta        = 18

  ==> Algorithm <==

  SCF Algorithm Type is DF.
  DIIS enabled.
  MOM disabled.
  Fractional occupation disabled.
  Guess Type is SAD.
  Energy threshold   = 1.00e-10
  Density threshold  = 1.00e-10
  Integral threshold = 1.00e-12

  ==> Primary Basis <==

  Basis Set: AUG-CC-PVDZ
    Blend: AUG-CC-PVDZ
    Number of shells: 130
    Number of basis functions: 302
    Number of Cartesian functions: 322
    Spherical Harmonics?: true
    Max angular momentum: 2

   => Loading Basis Set <=

    Name: (AUG-CC-PVDZ AUX)
    Role: JKFIT
    Keyword: DF_BASIS_SCF
    atoms 1-2, 10-11 entry N          line   212 file /theoryfs2/ds/csargent/miniconda3/envs/cle/share/psi4/basis/aug-cc-pvdz-jkfit.gbs 
    atoms 3-6, 12-15 entry H          line    70 file /theoryfs2/ds/csargent/miniconda3/envs/cle/share/psi4/basis/aug-cc-pvdz-jkfit.gbs 
    atoms 7-9, 16-18 entry C          line   154 file /theoryfs2/ds/csargent/miniconda3/envs/cle/share/psi4/basis/aug-cc-pvdz-jkfit.gbs 

  ==> Integral Setup <==

  ==> DiskDFJK: Density-Fitted J/K Matrices <==

    J tasked:                  Yes
    K tasked:                  Yes
    wK tasked:                  No
    OpenMP threads:              6
    Integrals threads:           6
    Memory [MiB]:             5006
    Algorithm:                Core
    Integral Cache:           LOAD
    Schwarz Cutoff:          1E-12
    Fitting Condition:       1E-10

   => Auxiliary Basis Set <=

  Basis Set: (AUG-CC-PVDZ AUX)
    Blend: AUG-CC-PVDZ-JKFIT
    Number of shells: 376
    Number of basis functions: 1116
    Number of Cartesian functions: 1290
    Spherical Harmonics?: true
    Max angular momentum: 3

  Minimum eigenvalue in the overlap matrix is 2.1836852160E-05.
  Reciprocal condition number of the overlap matrix is 1.8394336527E-06.
    Using symmetric orthogonalization.

  ==> Pre-Iterations <==

  SCF Guess: Superposition of Atomic Densities via on-the-fly atomic UHF (no occupation information).

   -------------------------
    Irrep   Nso     Nmo    
   -------------------------
     A        302     302 
   -------------------------
    Total     302     302
   -------------------------

  ==> Iterations <==

                           Total Energy        Delta E     RMS |[F,P]|

   @DF-RHF iter SAD:  -224.55857169485100   -2.24559e+02   0.00000e+00 
   @DF-RHF iter   1:  -224.69806464842998   -1.39493e-01   1.63067e-03 DIIS
   @DF-RHF iter   2:  -224.80532026703827   -1.07256e-01   9.27384e-04 DIIS
   @DF-RHF iter   3:  -224.84168817095718   -3.63679e-02   1.74019e-04 DIIS
   @DF-RHF iter   4:  -224.84337342304775   -1.68525e-03   7.98972e-05 DIIS
   @DF-RHF iter   5:  -224.84367500376314   -3.01581e-04   1.26452e-05 DIIS
   @DF-RHF iter   6:  -224.84369234079642   -1.73370e-05   5.61871e-06 DIIS
   @DF-RHF iter   7:  -224.84369542886549   -3.08807e-06   2.19503e-06 DIIS
   @DF-RHF iter   8:  -224.84369616078442   -7.31919e-07   7.77587e-07 DIIS
   @DF-RHF iter   9:  -224.84369627157841   -1.10794e-07   1.87961e-07 DIIS
   @DF-RHF iter  10:  -224.84369627711408   -5.53567e-09   7.33125e-08 DIIS
   @DF-RHF iter  11:  -224.84369627794047   -8.26390e-10   3.26918e-08 DIIS
   @DF-RHF iter  12:  -224.84369627809195   -1.51488e-10   9.70884e-09 DIIS
   @DF-RHF iter  13:  -224.84369627810574   -1.37845e-11   3.58840e-09 DIIS
   @DF-RHF iter  14:  -224.84369627810713   -1.39266e-12   1.58275e-09 DIIS
   @DF-RHF iter  15:  -224.84369627810750   -3.69482e-13   5.27556e-10 DIIS
   @DF-RHF iter  16:  -224.84369627810742    8.52651e-14   2.34516e-10 DIIS
   @DF-RHF iter  17:  -224.84369627810753   -1.13687e-13   4.71141e-11 DIIS
  Energy and wave function converged.


  ==> Post-Iterations <==

    Orbital Energies [Eh]
    ---------------------

    Doubly Occupied:                                                      

       1A    -15.637071     2A    -15.551216     3A    -11.300916  
       4A    -11.263160     5A    -11.245653     6A     -1.352867  
       7A     -1.169098     8A     -1.012098     9A     -0.824390  
      10A     -0.803731    11A     -0.760666    12A     -0.610096  
      13A     -0.603958    14A     -0.601922    15A     -0.570942  
      16A     -0.435483    17A     -0.400464    18A     -0.320685  

    Virtual:                                                              

      19A      0.023447    20A      0.025388    21A      0.040964  
      22A      0.041580    23A      0.044538    24A      0.049997  
      25A      0.061864    26A      0.068595    27A      0.077380  
      28A      0.087039    29A      0.089096    30A      0.098412  
      31A      0.101397    32A      0.120831    33A      0.125521  
      34A      0.125577    35A      0.125913    36A      0.127735  
      37A      0.128211    38A      0.133472    39A      0.133773  
      40A      0.134886    41A      0.139041    42A      0.140942  
      43A      0.156500    44A      0.157712    45A      0.158699  
      46A      0.171988    47A      0.178189    48A      0.187224  
      49A      0.193037    50A      0.208619    51A      0.210263  
      52A      0.211559    53A      0.213329    54A      0.220268  
      55A      0.221120    56A      0.223427    57A      0.232359  
      58A      0.233950    59A      0.241408    60A      0.261605  
      61A      0.267803    62A      0.273015    63A      0.277911  
      64A      0.300197    65A      0.301746    66A      0.307322  
      67A      0.314442    68A      0.320131    69A      0.338197  
      70A      0.360990    71A      0.361488    72A      0.370745  
      73A      0.376475    74A      0.379800    75A      0.388291  
      76A      0.394299    77A      0.397097    78A      0.417031  
      79A      0.428340    80A      0.429000    81A      0.436168  
      82A      0.441251    83A      0.449901    84A      0.452059  
      85A      0.453017    86A      0.466350    87A      0.469062  
      88A      0.481229    89A      0.481910    90A      0.486283  
      91A      0.488151    92A      0.518253    93A      0.521485  
      94A      0.536827    95A      0.539131    96A      0.544026  
      97A      0.551710    98A      0.556382    99A      0.556687  
     100A      0.568280   101A      0.576474   102A      0.580280  
     103A      0.588445   104A      0.594249   105A      0.598939  
     106A      0.607386   107A      0.612885   108A      0.616080  
     109A      0.619219   110A      0.636538   111A      0.640698  
     112A      0.652504   113A      0.669282   114A      0.671337  
     115A      0.678185   116A      0.678567   117A      0.683874  
     118A      0.684688   119A      0.712076   120A      0.714698  
     121A      0.725758   122A      0.737038   123A      0.741238  
     124A      0.757012   125A      0.762698   126A      0.767400  
     127A      0.790929   128A      0.793606   129A      0.799134  
     130A      0.809747   131A      0.811395   132A      0.813301  
     133A      0.824236   134A      0.837534   135A      0.860398  
     136A      0.860556   137A      0.871425   138A      0.885765  
     139A      0.887457   140A      0.889823   141A      0.910646  
     142A      0.920552   143A      0.927816   144A      0.954351  
     145A      0.969637   146A      0.976964   147A      0.992730  
     148A      0.998360   149A      1.010706   150A      1.016364  
     151A      1.017404   152A      1.030676   153A      1.059954  
     154A      1.077353   155A      1.079514   156A      1.084552  
     157A      1.104566   158A      1.116951   159A      1.126983  
     160A      1.133370   161A      1.140497   162A      1.149565  
     163A      1.167170   164A      1.171823   165A      1.174952  
     166A      1.198454   167A      1.211483   168A      1.217445  
     169A      1.260721   170A      1.278917   171A      1.291536  
     172A      1.297899   173A      1.302539   174A      1.313467  
     175A      1.319014   176A      1.348480   177A      1.385017  
     178A      1.385028   179A      1.398145   180A      1.451143  
     181A      1.495817   182A      1.503288   183A      1.516743  
     184A      1.518410   185A      1.542268   186A      1.574127  
     187A      1.574285   188A      1.596381   189A      1.652159  
     190A      1.661868   191A      1.671505   192A      1.705286  
     193A      1.724477   194A      1.782643   195A      1.799067  
     196A      1.807063   197A      1.864950   198A      1.881477  
     199A      1.924391   200A      1.964987   201A      2.022005  
     202A      2.025429   203A      2.040674   204A      2.072981  
     205A      2.102005   206A      2.107054   207A      2.120364  
     208A      2.126759   209A      2.132372   210A      2.135965  
     211A      2.150490   212A      2.168670   213A      2.178815  
     214A      2.186177   215A      2.230747   216A      2.253757  
     217A      2.267082   218A      2.275963   219A      2.300924  
     220A      2.309704   221A      2.328153   222A      2.332072  
     223A      2.377798   224A      2.406605   225A      2.414446  
     226A      2.417758   227A      2.456813   228A      2.471848  
     229A      2.494987   230A      2.496919   231A      2.514025  
     232A      2.526871   233A      2.545345   234A      2.546507  
     235A      2.577961   236A      2.585743   237A      2.600957  
     238A      2.633765   239A      2.697331   240A      2.734093  
     241A      2.747025   242A      2.767089   243A      2.791392  
     244A      2.794149   245A      2.803444   246A      2.829994  
     247A      2.837641   248A      2.867213   249A      2.896832  
     250A      2.934441   251A      2.950547   252A      2.952738  
     253A      2.980862   254A      3.044602   255A      3.051201  
     256A      3.069910   257A      3.077318   258A      3.132984  
     259A      3.160748   260A      3.184090   261A      3.199163  
     262A      3.208795   263A      3.214536   264A      3.334816  
     265A      3.342000   266A      3.354572   267A      3.355881  
     268A      3.364070   269A      3.459794   270A      3.495570  
     271A      3.518552   272A      3.570728   273A      3.610054  
     274A      3.708379   275A      3.727876   276A      3.768294  
     277A      3.779538   278A      3.799330   279A      3.859125  
     280A      3.871859   281A      4.005034   282A      4.109022  
     283A      4.213894   284A      4.637920   285A      4.639977  
     286A      4.697150   287A      4.772950   288A      4.881237  
     289A      5.022590   290A      5.255831   291A      5.374359  
     292A      5.495996   293A      5.611579   294A      5.717460  
     295A      5.885077   296A      6.090859   297A      6.199312  
     298A     18.256715   299A     18.591239   300A     19.301676  
     301A     25.313069   302A     25.454425  

    Final Occupation by Irrep:
              A 
    DOCC [    18 ]

  @DF-RHF Final Energy:  -224.84369627810753

   => Energetics <=

    Nuclear Repulsion Energy =            164.0866959844954351
    One-Electron Energy =                -628.9319562779199941
    Two-Electron Energy =                 240.0015640153170011
    Total Energy =                       -224.8436962781075295

Computation Completed


Properties will be evaluated at   0.000000,   0.000000,   0.000000 [a0]

Properties computed using the SCF density matrix

  Nuclear Dipole Moment: [e a0]
     X:  1090.5729      Y:  -751.8897      Z:  -162.8238

  Electronic Dipole Moment: [e a0]
     X: -1089.7691      Y:   751.7265      Z:   161.4914

  Dipole Moment: [e a0]
     X:     0.8038      Y:    -0.1633      Z:    -1.3324     Total:     1.5646

  Dipole Moment: [D]
     X:     2.0431      Y:    -0.4150      Z:    -3.3867     Total:     3.9769


*** tstop() called on ds1 at Tue Sep 14 18:10:10 2021
Module time:
	user time   =      15.76 seconds =       0.26 minutes
	system time =       0.35 seconds =       0.01 minutes
	total time  =          4 seconds =       0.07 minutes
Total time:
	user time   =      54.55 seconds =       0.91 minutes
	system time =       1.88 seconds =       0.03 minutes
	total time  =         12 seconds =       0.20 minutes
  Constructing Basis Sets for SAPT...

   => Loading Basis Set <=

    Name: (AUG-CC-PVDZ AUX)
    Role: RIFIT
    Keyword: DF_BASIS_SAPT
    atoms 1-2, 10-11 entry N          line   158 file /theoryfs2/ds/csargent/miniconda3/envs/cle/share/psi4/basis/aug-cc-pvdz-ri.gbs 
    atoms 3-6, 12-15 entry H          line    30 file /theoryfs2/ds/csargent/miniconda3/envs/cle/share/psi4/basis/aug-cc-pvdz-ri.gbs 
    atoms 7-9, 16-18 entry C          line   112 file /theoryfs2/ds/csargent/miniconda3/envs/cle/share/psi4/basis/aug-cc-pvdz-ri.gbs 


  //>>>>>>>>>>>>>>>>>>>>>>>>>>>>>>>>>>>//
  //               SAPT0               //
  //<<<<<<<<<<<<<<<<<<<<<<<<<<<<<<<<<<<//


*** tstart() called on ds1
*** at Tue Sep 14 18:10:10 2021

        SAPT0  
    Ed Hohenstein
     6 June 2009

      Orbital Information
  --------------------------
    NSO        =       302
    NMO        =       302
    NRI        =       904
    NOCC A     =        18
    NOCC B     =        18
    FOCC A     =         5
    FOCC B     =         5
    NVIR A     =       284
    NVIR B     =       284

    Elst10,r            =    -0.000012728297 [Eh]
    Exch10              =     0.000000000000 [Eh]
    Exch10 (S^2)        =     0.000000000000 [Eh]

    Iter     Energy [mEh]          dE [mEh]         Residual      Time [s]
       1      -0.00004891       0.000048911       0.065315276             0
       2      -0.00004704      -0.000001870       0.019093030             0
       3      -0.00005246       0.000005424       0.005998680             0
       4      -0.00005280       0.000000337       0.003007305             0
       5      -0.00005261      -0.000000186       0.001537561             1
       6      -0.00005255      -0.000000067       0.000464201             1
       7      -0.00005257       0.000000023       0.000126033             1
       8      -0.00005258       0.000000005       0.000035593             1
       9      -0.00005257      -0.000000001       0.000013434             1
      10      -0.00005257      -0.000000001       0.000002949             1
      11      -0.00005257       0.000000000       0.000001022             1
      12      -0.00005257       0.000000000       0.000000403             1

    CHF Iterations converged


    Iter     Energy [mEh]          dE [mEh]         Residual      Time [s]
       1      -0.00002466       0.000024665       0.044815052             1
       2      -0.00002225      -0.000002411       0.008882461             1
       3      -0.00002404       0.000001787       0.003689876             1
       4      -0.00002423       0.000000194       0.000813586             1
       5      -0.00002417      -0.000000060       0.000301460             1
       6      -0.00002417      -0.000000007       0.000081541             1
       7      -0.00002417       0.000000003       0.000023411             1
       8      -0.00002417       0.000000000       0.000010603             1
       9      -0.00002417      -0.000000000       0.000003634             2
      10      -0.00002417      -0.000000000       0.000001330             2
      11      -0.00002417       0.000000000       0.000000474             2

    CHF Iterations converged

    Ind20,r (A<-B)      =    -0.000000052574 [Eh]
    Ind20,r (B<-A)      =    -0.000000024170 [Eh]
    Ind20,r             =    -0.000000076744 [Eh]
    Exch-Ind20,r (A<-B) =     0.000000000000 [Eh]
    Exch-Ind20,r (B<-A) =     0.000000000000 [Eh]
    Exch-Ind20,r        =     0.000000000000 [Eh]
    Disp20              =    -0.000000407335 [Eh]
    Disp20 (SS)         =    -0.000000203667 [Eh]
    Disp20 (OS)         =    -0.000000203667 [Eh]
    Exch-Disp20         =     0.000000000000 [Eh]
    Exch-Disp20 (SS)    =     0.000000000000 [Eh]
    Exch-Disp20 (OS)    =     0.000000000000 [Eh]

    SAPT Results 
  --------------------------------------------------------------------------------------------------------
    Electrostatics                 -0.01272830 [mEh]      -0.00798713 [kcal/mol]      -0.03341814 [kJ/mol]
      Elst10,r                     -0.01272830 [mEh]      -0.00798713 [kcal/mol]      -0.03341814 [kJ/mol]

    Exchange                        0.00000000 [mEh]       0.00000000 [kcal/mol]       0.00000000 [kJ/mol]
      Exch10                        0.00000000 [mEh]       0.00000000 [kcal/mol]       0.00000000 [kJ/mol]
      Exch10(S^2)                   0.00000000 [mEh]       0.00000000 [kcal/mol]       0.00000000 [kJ/mol]

    Induction                      -0.00006656 [mEh]      -0.00004177 [kcal/mol]      -0.00017476 [kJ/mol]
      Ind20,r                      -0.00007674 [mEh]      -0.00004816 [kcal/mol]      -0.00020149 [kJ/mol]
      Exch-Ind20,r                  0.00000000 [mEh]       0.00000000 [kcal/mol]       0.00000000 [kJ/mol]
      delta HF,r (2)                0.00001018 [mEh]       0.00000639 [kcal/mol]       0.00002674 [kJ/mol]

    Dispersion                     -0.00040733 [mEh]      -0.00025561 [kcal/mol]      -0.00106946 [kJ/mol]
      Disp20                       -0.00040733 [mEh]      -0.00025561 [kcal/mol]      -0.00106946 [kJ/mol]
      Exch-Disp20                   0.00000000 [mEh]       0.00000000 [kcal/mol]       0.00000000 [kJ/mol]
      Disp20 (SS)                  -0.00020367 [mEh]      -0.00012780 [kcal/mol]      -0.00053473 [kJ/mol]
      Disp20 (OS)                  -0.00020367 [mEh]      -0.00012780 [kcal/mol]      -0.00053473 [kJ/mol]
      Exch-Disp20 (SS)              0.00000000 [mEh]       0.00000000 [kcal/mol]       0.00000000 [kJ/mol]
      Exch-Disp20 (OS)              0.00000000 [mEh]       0.00000000 [kcal/mol]       0.00000000 [kJ/mol]

  Total HF                         -0.01279486 [mEh]      -0.00802889 [kcal/mol]      -0.03359290 [kJ/mol]
  Total SAPT0                      -0.01320219 [mEh]      -0.00828450 [kcal/mol]      -0.03466235 [kJ/mol]

  Special recipe for scaled SAPT0 (see Manual):
    Electrostatics sSAPT0          -0.01272830 [mEh]      -0.00798713 [kcal/mol]      -0.03341814 [kJ/mol]
    Exchange sSAPT0                 0.00000000 [mEh]       0.00000000 [kcal/mol]       0.00000000 [kJ/mol]
    Induction sSAPT0               -0.00006656 [mEh]      -0.00004177 [kcal/mol]      -0.00017476 [kJ/mol]
    Dispersion sSAPT0              -0.00040733 [mEh]      -0.00025561 [kcal/mol]      -0.00106946 [kJ/mol]
  Total sSAPT0                     -0.01320219 [mEh]      -0.00828450 [kcal/mol]      -0.03466235 [kJ/mol]
  --------------------------------------------------------------------------------------------------------

*** tstop() called on ds1 at Tue Sep 14 18:10:19 2021
Module time:
	user time   =      44.44 seconds =       0.74 minutes
	system time =       3.81 seconds =       0.06 minutes
	total time  =          9 seconds =       0.15 minutes
Total time:
	user time   =      99.89 seconds =       1.66 minutes
	system time =       5.72 seconds =       0.10 minutes
	total time  =         21 seconds =       0.35 minutes


Warning! sapt0 does not have an associated derived wavefunction.The returned wavefunction is the dimer SCF wavefunction.


    Psi4 stopped on: Tuesday, 14 September 2021 06:10PM
    Psi4 wall time for execution: 0:00:21.52

*** Psi4 exiting successfully. Buy a developer a beer!
