
    -----------------------------------------------------------------------
          Psi4: An Open-Source Ab Initio Electronic Structure Package
                               Psi4 1.4rc3

                         Git: Rev {HEAD} 080dba6


    D. G. A. Smith, L. A. Burns, A. C. Simmonett, R. M. Parrish,
    M. C. Schieber, R. Galvelis, P. Kraus, H. Kruse, R. Di Remigio,
    A. Alenaizan, A. M. James, S. Lehtola, J. P. Misiewicz, M. Scheurer,
    R. A. Shaw, J. B. Schriber, Y. Xie, Z. L. Glick, D. A. Sirianni,
    J. S. O'Brien, J. M. Waldrop, A. Kumar, E. G. Hohenstein,
    B. P. Pritchard, B. R. Brooks, H. F. Schaefer III, A. Yu. Sokolov,
    K. Patkowski, A. E. DePrince III, U. Bozkaya, R. A. King,
    F. A. Evangelista, J. M. Turney, T. D. Crawford, C. D. Sherrill,
    J. Chem. Phys. 152(18) 184108 (2020). https://doi.org/10.1063/5.0006002

                            Additional Code Authors
    E. T. Seidl, C. L. Janssen, E. F. Valeev, M. L. Leininger,
    J. F. Gonthier, R. M. Richard, H. R. McAlexander, M. Saitow, X. Wang,
    P. Verma, and M. H. Lechner

             Previous Authors, Complete List of Code Contributors,
                       and Citations for Specific Modules
    https://github.com/psi4/psi4/blob/master/codemeta.json
    https://github.com/psi4/psi4/graphs/contributors
    http://psicode.org/psi4manual/master/introduction.html#citing-psifour

    -----------------------------------------------------------------------


    Psi4 started on: Tuesday, 14 September 2021 04:14PM

    Process ID: 31844
    Host:       ds1
    PSIDATADIR: /theoryfs2/ds/csargent/miniconda3/envs/cle/share/psi4
    Memory:     500.0 MiB
    Threads:    6

  ==> Input File <==

--------------------------------------------------------------------------
# PSI4 file produced by CrystaLattE

# Generated from:               imidazole.xyz
# Psithon input for N-mer:      2mer-0+711
# Number of atoms per monomer:  [9, 9]
# Number of replicas:           1
# COM priority:                 1.342656474288e-05
# Minimum COM separations:      22.264
# Separation priority:          2.557689864881e-05
# Minimum monomer separations:  17.961
# Cutoff priority:              7.535819890234e-07
# Nuclear repulsion energy:     358.99634631430973

memory 7 GB

molecule Dimer_0_711 {
  N           -4.29309621      -3.06837431       5.30516231
  N           -2.15847371      -2.92627296       1.72037448
  H           -0.02545587      -6.35903575       2.22046452
  H           -2.68566968      -6.53260241       6.61445954
  H           -4.74388423      -0.00609006       2.75615968
  H           -1.41045540      -2.24723147       0.00000000
  C           -1.43737991      -5.07504848       2.94065891
  C           -2.76900782      -5.14609916       5.13522880
  C           -3.85955036      -1.77728198       3.21093411
--
  N           -8.33026296     -36.62865492      27.67488576
  N          -10.46488546     -36.77075628      31.25967360
  H          -12.59790331     -33.33799348      30.75958356
  H           -9.93768949     -33.16442682      26.36558854
  H           -7.87947495     -39.69093917      30.22388840
  H          -11.21290377     -37.44979776      32.98004808
  C          -11.18597926     -34.62198075      30.03938916
  C           -9.85435135     -34.55093007      27.84481927
  C           -8.76380882     -37.91974725      29.76911396
units = au
no_com
no_reorient
}

set {
  e_convergence 10
  d_convergence 10
  scf_type df
  mp2_type df
  cc_type df
  freeze_core true
}

energy('sapt0/aug-cc-pvdz')

--------------------------------------------------------------------------

  Memory set to   6.519 GiB by Python driver.

Scratch directory: /scratch/csargent/psi4.31446.79897/

Scratch directory: /scratch/csargent/psi4.31446.79897/

  //>>>>>>>>>>>>>>>>>>>>>>>>>>>>>>>>>>>//
  //              Dimer HF             //
  //<<<<<<<<<<<<<<<<<<<<<<<<<<<<<<<<<<<//


*** tstart() called on ds1
*** at Tue Sep 14 16:14:11 2021

   => Loading Basis Set <=

    Name: AUG-CC-PVDZ
    Role: ORBITAL
    Keyword: BASIS
    atoms 1-2, 10-11 entry N          line   218 file /theoryfs2/ds/csargent/miniconda3/envs/cle/share/psi4/basis/aug-cc-pvdz.gbs
    atoms 3-6, 12-15 entry H          line    40 file /theoryfs2/ds/csargent/miniconda3/envs/cle/share/psi4/basis/aug-cc-pvdz.gbs
    atoms 7-9, 16-18 entry C          line   182 file /theoryfs2/ds/csargent/miniconda3/envs/cle/share/psi4/basis/aug-cc-pvdz.gbs


         ---------------------------------------------------------
                                   SCF
               by Justin Turney, Rob Parrish, Andy Simmonett
                          and Daniel G. A. Smith
                              RHF Reference
                        6 Threads,   6675 MiB Core
         ---------------------------------------------------------

  ==> Geometry <==

    Molecular point group: c1
    Full point group: C1

    Geometry (in Bohr), charge = 0, multiplicity = 1:

       Center              X                  Y                   Z               Mass
    ------------   -----------------  -----------------  -----------------  -----------------
         N           -4.293096210000    -3.068374310000     5.305162310000    14.003074004430
         N           -2.158473710000    -2.926272960000     1.720374480000    14.003074004430
         H           -0.025455870000    -6.359035750000     2.220464520000     1.007825032230
         H           -2.685669680000    -6.532602410000     6.614459540000     1.007825032230
         H           -4.743884230000    -0.006090060000     2.756159680000     1.007825032230
         H           -1.410455400000    -2.247231470000     0.000000000000     1.007825032230
         C           -1.437379910000    -5.075048480000     2.940658910000    12.000000000000
         C           -2.769007820000    -5.146099160000     5.135228800000    12.000000000000
         C           -3.859550360000    -1.777281980000     3.210934110000    12.000000000000
         N           -8.330262960000   -36.628654920000    27.674885760000    14.003074004430
         N          -10.464885460000   -36.770756280000    31.259673600000    14.003074004430
         H          -12.597903310000   -33.337993480000    30.759583560000     1.007825032230
         H           -9.937689490000   -33.164426820000    26.365588540000     1.007825032230
         H           -7.879474950000   -39.690939170000    30.223888400000     1.007825032230
         H          -11.212903770000   -37.449797760000    32.980048080000     1.007825032230
         C          -11.185979260000   -34.621980750000    30.039389160000    12.000000000000
         C           -9.854351350000   -34.550930070000    27.844819270000    12.000000000000
         C           -8.763808820000   -37.919747250000    29.769113960000    12.000000000000

  Running in c1 symmetry.

  Rotational constants: A =      0.09600  B =      0.00038  C =      0.00038 [cm^-1]
  Rotational constants: A =   2878.12477  B =     11.53723  C =     11.49980 [MHz]
  Nuclear repulsion =  358.996346337114687

  Charge       = 0
  Multiplicity = 1
  Electrons    = 72
  Nalpha       = 36
  Nbeta        = 36

  ==> Algorithm <==

  SCF Algorithm Type is DF.
  DIIS enabled.
  MOM disabled.
  Fractional occupation disabled.
  Guess Type is SAD.
  Energy threshold   = 1.00e-10
  Density threshold  = 1.00e-10
  Integral threshold = 1.00e-12

  ==> Primary Basis <==

  Basis Set: AUG-CC-PVDZ
    Blend: AUG-CC-PVDZ
    Number of shells: 130
    Number of basis functions: 302
    Number of Cartesian functions: 322
    Spherical Harmonics?: true
    Max angular momentum: 2

   => Loading Basis Set <=

    Name: (AUG-CC-PVDZ AUX)
    Role: JKFIT
    Keyword: DF_BASIS_SCF
    atoms 1-2, 10-11 entry N          line   212 file /theoryfs2/ds/csargent/miniconda3/envs/cle/share/psi4/basis/aug-cc-pvdz-jkfit.gbs
    atoms 3-6, 12-15 entry H          line    70 file /theoryfs2/ds/csargent/miniconda3/envs/cle/share/psi4/basis/aug-cc-pvdz-jkfit.gbs
    atoms 7-9, 16-18 entry C          line   154 file /theoryfs2/ds/csargent/miniconda3/envs/cle/share/psi4/basis/aug-cc-pvdz-jkfit.gbs

  ==> Integral Setup <==

  ==> DiskDFJK: Density-Fitted J/K Matrices <==

    J tasked:                  Yes
    K tasked:                  Yes
    wK tasked:                  No
    OpenMP threads:              6
    Integrals threads:           6
    Memory [MiB]:             5006
    Algorithm:                Core
    Integral Cache:           SAVE
    Schwarz Cutoff:          1E-12
    Fitting Condition:       1E-10

   => Auxiliary Basis Set <=

  Basis Set: (AUG-CC-PVDZ AUX)
    Blend: AUG-CC-PVDZ-JKFIT
    Number of shells: 376
    Number of basis functions: 1116
    Number of Cartesian functions: 1290
    Spherical Harmonics?: true
    Max angular momentum: 3

  Minimum eigenvalue in the overlap matrix is 2.1836969952E-05.
  Reciprocal condition number of the overlap matrix is 1.8394435758E-06.
    Using symmetric orthogonalization.

  ==> Pre-Iterations <==

  SCF Guess: Superposition of Atomic Densities via on-the-fly atomic UHF (no occupation information).

   -------------------------
    Irrep   Nso     Nmo
   -------------------------
     A        302     302
   -------------------------
    Total     302     302
   -------------------------

  ==> Iterations <==

                           Total Energy        Delta E     RMS |[F,P]|

   @DF-RHF iter SAD:  -449.11714338430670   -4.49117e+02   0.00000e+00
   @DF-RHF iter   1:  -449.39610056412323   -2.78957e-01   2.30622e-03 DIIS
   @DF-RHF iter   2:  -449.61060614402845   -2.14506e-01   1.31179e-03 DIIS
   @DF-RHF iter   3:  -449.68337325559168   -7.27671e-02   2.46176e-04 DIIS
   @DF-RHF iter   4:  -449.68674509267527   -3.37184e-03   1.13036e-04 DIIS
   @DF-RHF iter   5:  -449.68734871743925   -6.03625e-04   1.78823e-05 DIIS
   @DF-RHF iter   6:  -449.68738338803723   -3.46706e-05   7.94707e-06 DIIS
   @DF-RHF iter   7:  -449.68738956447038   -6.17643e-06   3.10492e-06 DIIS
   @DF-RHF iter   8:  -449.68739102890692   -1.46444e-06   1.09987e-06 DIIS
   @DF-RHF iter   9:  -449.68739125060847   -2.21702e-07   2.65968e-07 DIIS
   @DF-RHF iter  10:  -449.68739126168788   -1.10794e-08   1.03818e-07 DIIS
   @DF-RHF iter  11:  -449.68739126334486   -1.65699e-09   4.62470e-08 DIIS
   @DF-RHF iter  12:  -449.68739126364841   -3.03544e-10   1.37426e-08 DIIS
   @DF-RHF iter  13:  -449.68739126367518   -2.67733e-11   5.07832e-09 DIIS
   @DF-RHF iter  14:  -449.68739126367882   -3.63798e-12   2.24049e-09 DIIS
   @DF-RHF iter  15:  -449.68739126367831    5.11591e-13   7.46355e-10 DIIS
   @DF-RHF iter  16:  -449.68739126367944   -1.13687e-12   3.31964e-10 DIIS
   @DF-RHF iter  17:  -449.68739126367916    2.84217e-13   6.66849e-11 DIIS
  Energy and wave function converged.


  ==> Post-Iterations <==

    Orbital Energies [Eh]
    ---------------------

    Doubly Occupied:

       1A    -15.636554     2A    -15.636554     3A    -15.550700
       4A    -15.550700     5A    -11.300402     6A    -11.300402
       7A    -11.262613     8A    -11.262613     9A    -11.245100
      10A    -11.245100    11A     -1.352344    12A     -1.352344
      13A     -1.168577    14A     -1.168577    15A     -1.011563
      16A     -1.011563    17A     -0.823868    18A     -0.823868
      19A     -0.803194    20A     -0.803194    21A     -0.760140
      22A     -0.760140    23A     -0.609565    24A     -0.609565
      25A     -0.603435    26A     -0.603435    27A     -0.601383
      28A     -0.601383    29A     -0.570402    30A     -0.570402
      31A     -0.434965    32A     -0.434965    33A     -0.399941
      34A     -0.399941    35A     -0.320147    36A     -0.320147

    Virtual:

      37A      0.025863    38A      0.025863    39A      0.042134
      40A      0.042134    41A      0.050592    42A      0.050593
      43A      0.062443    44A      0.062444    45A      0.089594
      46A      0.089594    47A      0.101894    48A      0.101894
      49A      0.121332    50A      0.121332    51A      0.126148
      52A      0.126148    53A      0.134006    54A      0.134007
      55A      0.134368    56A      0.134368    57A      0.141501
      58A      0.141501    59A      0.157109    60A      0.157109
      61A      0.159140    62A      0.159140    63A      0.172654
      64A      0.172659    65A      0.178700    66A      0.178700
      67A      0.187704    68A      0.187704    69A      0.212061
      70A      0.212061    71A      0.220814    72A      0.220814
      73A      0.232881    74A      0.232881    75A      0.241941
      76A      0.241941    77A      0.262132    78A      0.262132
      79A      0.268321    80A      0.268322    81A      0.278427
      82A      0.278427    83A      0.302263    84A      0.302263
      85A      0.314928    86A      0.314928    87A      0.338761
      88A      0.338761    89A      0.362044    90A      0.362044
      91A      0.371272    92A      0.371272    93A      0.380328
      94A      0.380328    95A      0.388819    96A      0.388819
      97A      0.397635    98A      0.397635    99A      0.417578
     100A      0.417580   101A      0.429533   102A      0.429533
     103A      0.452586   104A      0.452586   105A      0.466866
     106A      0.466866   107A      0.481748   108A      0.481748
     109A      0.486845   110A      0.486845   111A      0.488700
     112A      0.488700   113A      0.552231   114A      0.552231
     115A      0.556922   116A      0.556922   117A      0.568816
     118A      0.568816   119A      0.576978   120A      0.576978
     121A      0.594777   122A      0.594777   123A      0.599472
     124A      0.599472   125A      0.616622   126A      0.616622
     127A      0.637091   128A      0.637091   129A      0.653042
     130A      0.653042   131A      0.669827   132A      0.669827
     133A      0.671876   134A      0.671876   135A      0.678700
     136A      0.678700   137A      0.684443   138A      0.684443
     139A      0.715229   140A      0.715229   141A      0.726281
     142A      0.726281   143A      0.741777   144A      0.741777
     145A      0.763232   146A      0.763232   147A      0.767931
     148A      0.767931   149A      0.791464   150A      0.791464
     151A      0.794104   152A      0.794104   153A      0.810273
     154A      0.810273   155A      0.860931   156A      0.860931
     157A      0.871963   158A      0.871963   159A      0.886294
     160A      0.886295   161A      0.890392   162A      0.890392
     163A      0.954879   164A      0.954879   165A      0.977479
     166A      0.977479   167A      0.998877   168A      0.998877
     169A      1.011227   170A      1.011227   171A      1.017941
     172A      1.017941   173A      1.031196   174A      1.031196
     175A      1.077873   176A      1.077873   177A      1.085068
     178A      1.085068   179A      1.127524   180A      1.127524
     181A      1.141034   182A      1.141034   183A      1.150092
     184A      1.150092   185A      1.167708   186A      1.167708
     187A      1.217970   188A      1.217970   189A      1.261264
     190A      1.261264   191A      1.303087   192A      1.303087
     193A      1.385542   194A      1.385542   195A      1.398671
     196A      1.398671   197A      1.451666   198A      1.451666
     199A      1.503817   200A      1.503817   201A      1.518936
     202A      1.518936   203A      1.574670   204A      1.574670
     205A      1.574829   206A      1.574829   207A      1.596916
     208A      1.596916   209A      1.652687   210A      1.652687
     211A      1.672056   212A      1.672056   213A      1.705837
     214A      1.705837   215A      1.724979   216A      1.724979
     217A      1.783185   218A      1.783185   219A      1.799614
     220A      1.799614   221A      1.807617   222A      1.807617
     223A      1.865477   224A      1.865477   225A      1.881986
     226A      1.881986   227A      1.924909   228A      1.924909
     229A      1.965511   230A      1.965511   231A      2.022536
     232A      2.022536   233A      2.025958   234A      2.025958
     235A      2.073512   236A      2.073512   237A      2.107589
     238A      2.107589   239A      2.127306   240A      2.127306
     241A      2.136512   242A      2.136512   243A      2.169208
     244A      2.169208   245A      2.179343   246A      2.179343
     247A      2.267609   248A      2.267609   249A      2.276484
     250A      2.276484   251A      2.301434   252A      2.301434
     253A      2.332591   254A      2.332591   255A      2.418304
     256A      2.418304   257A      2.497434   258A      2.497434
     259A      2.514552   260A      2.514552   261A      2.545852
     262A      2.545852   263A      2.586279   264A      2.586279
     265A      2.634299   266A      2.634299   267A      2.734643
     268A      2.734643   269A      2.747545   270A      2.747545
     271A      2.767626   272A      2.767626   273A      2.794675
     274A      2.794675   275A      2.803969   276A      2.803969
     277A      2.838166   278A      2.838166   279A      2.867728
     280A      2.867728   281A      2.953262   282A      2.953263
     283A      2.981382   284A      2.981382   285A      3.051742
     286A      3.051742   287A      3.070445   288A      3.070445
     289A      3.199681   290A      3.199681   291A      3.209324
     292A      3.209324   293A      3.335333   294A      3.335333
     295A      3.355099   296A      3.355099   297A      3.519078
     298A      3.519078   299A      3.768819   300A      3.768820
     301A      4.109560   302A      4.109561

    Final Occupation by Irrep:
              A
    DOCC [    36 ]

  @DF-RHF Final Energy:  -449.68739126367916

   => Energetics <=

    Nuclear Repulsion Energy =            358.9963463371146872
    One-Electron Energy =               -1319.5479014844333960
    Two-Electron Energy =                 510.8641638836395487
    Total Energy =                       -449.6873912636791601

Computation Completed


Properties will be evaluated at   0.000000,   0.000000,   0.000000 [a0]

Properties computed using the SCF density matrix

  Nuclear Dipole Moment: [e a0]
     X:  -454.4409      Y: -1429.0931      Z:  1187.2817

  Electronic Dipole Moment: [e a0]
     X:   454.4409      Y:  1429.0931      Z: -1187.2817

  Dipole Moment: [e a0]
     X:     0.0000      Y:     0.0000      Z:    -0.0000     Total:     0.0000

  Dipole Moment: [D]
     X:     0.0000      Y:     0.0000      Z:    -0.0000     Total:     0.0000


*** tstop() called on ds1 at Tue Sep 14 16:14:16 2021
Module time:
	user time   =      22.31 seconds =       0.37 minutes
	system time =       0.55 seconds =       0.01 minutes
	total time  =          5 seconds =       0.08 minutes
Total time:
	user time   =      22.31 seconds =       0.37 minutes
	system time =       0.55 seconds =       0.01 minutes
	total time  =          5 seconds =       0.08 minutes

  //>>>>>>>>>>>>>>>>>>>>>>>>>>>>>>>>>>>//
  //            Monomer A HF           //
  //<<<<<<<<<<<<<<<<<<<<<<<<<<<<<<<<<<<//


*** tstart() called on ds1
*** at Tue Sep 14 16:14:16 2021

   => Loading Basis Set <=

    Name: AUG-CC-PVDZ
    Role: ORBITAL
    Keyword: BASIS
    atoms 1-2, 10-11 entry N          line   218 file /theoryfs2/ds/csargent/miniconda3/envs/cle/share/psi4/basis/aug-cc-pvdz.gbs
    atoms 3-6, 12-15 entry H          line    40 file /theoryfs2/ds/csargent/miniconda3/envs/cle/share/psi4/basis/aug-cc-pvdz.gbs
    atoms 7-9, 16-18 entry C          line   182 file /theoryfs2/ds/csargent/miniconda3/envs/cle/share/psi4/basis/aug-cc-pvdz.gbs


         ---------------------------------------------------------
                                   SCF
               by Justin Turney, Rob Parrish, Andy Simmonett
                          and Daniel G. A. Smith
                              RHF Reference
                        6 Threads,   6675 MiB Core
         ---------------------------------------------------------

  ==> Geometry <==

    Molecular point group: c1
    Full point group: C1

    Geometry (in Bohr), charge = 0, multiplicity = 1:

       Center              X                  Y                   Z               Mass
    ------------   -----------------  -----------------  -----------------  -----------------
         N           -4.293096210000    -3.068374310000     5.305162310000    14.003074004430
         N           -2.158473710000    -2.926272960000     1.720374480000    14.003074004430
         H           -0.025455870000    -6.359035750000     2.220464520000     1.007825032230
         H           -2.685669680000    -6.532602410000     6.614459540000     1.007825032230
         H           -4.743884230000    -0.006090060000     2.756159680000     1.007825032230
         H           -1.410455400000    -2.247231470000     0.000000000000     1.007825032230
         C           -1.437379910000    -5.075048480000     2.940658910000    12.000000000000
         C           -2.769007820000    -5.146099160000     5.135228800000    12.000000000000
         C           -3.859550360000    -1.777281980000     3.210934110000    12.000000000000
      Gh(N)          -8.330262960000   -36.628654920000    27.674885760000    14.003074004430
      Gh(N)         -10.464885460000   -36.770756280000    31.259673600000    14.003074004430
      Gh(H)         -12.597903310000   -33.337993480000    30.759583560000     1.007825032230
      Gh(H)          -9.937689490000   -33.164426820000    26.365588540000     1.007825032230
      Gh(H)          -7.879474950000   -39.690939170000    30.223888400000     1.007825032230
      Gh(H)         -11.212903770000   -37.449797760000    32.980048080000     1.007825032230
      Gh(C)         -11.185979260000   -34.621980750000    30.039389160000    12.000000000000
      Gh(C)          -9.854351350000   -34.550930070000    27.844819270000    12.000000000000
      Gh(C)          -8.763808820000   -37.919747250000    29.769113960000    12.000000000000

  Running in c1 symmetry.

  Rotational constants: A =      0.09600  B =      0.00038  C =      0.00038 [cm^-1]
  Rotational constants: A =   2878.12477  B =     11.53723  C =     11.49980 [MHz]
  Nuclear repulsion =  164.086695994184396

  Charge       = 0
  Multiplicity = 1
  Electrons    = 36
  Nalpha       = 18
  Nbeta        = 18

  ==> Algorithm <==

  SCF Algorithm Type is DF.
  DIIS enabled.
  MOM disabled.
  Fractional occupation disabled.
  Guess Type is SAD.
  Energy threshold   = 1.00e-10
  Density threshold  = 1.00e-10
  Integral threshold = 1.00e-12

  ==> Primary Basis <==

  Basis Set: AUG-CC-PVDZ
    Blend: AUG-CC-PVDZ
    Number of shells: 130
    Number of basis functions: 302
    Number of Cartesian functions: 322
    Spherical Harmonics?: true
    Max angular momentum: 2

   => Loading Basis Set <=

    Name: (AUG-CC-PVDZ AUX)
    Role: JKFIT
    Keyword: DF_BASIS_SCF
    atoms 1-2, 10-11 entry N          line   212 file /theoryfs2/ds/csargent/miniconda3/envs/cle/share/psi4/basis/aug-cc-pvdz-jkfit.gbs
    atoms 3-6, 12-15 entry H          line    70 file /theoryfs2/ds/csargent/miniconda3/envs/cle/share/psi4/basis/aug-cc-pvdz-jkfit.gbs
    atoms 7-9, 16-18 entry C          line   154 file /theoryfs2/ds/csargent/miniconda3/envs/cle/share/psi4/basis/aug-cc-pvdz-jkfit.gbs

  ==> Integral Setup <==

  ==> DiskDFJK: Density-Fitted J/K Matrices <==

    J tasked:                  Yes
    K tasked:                  Yes
    wK tasked:                  No
    OpenMP threads:              6
    Integrals threads:           6
    Memory [MiB]:             5006
    Algorithm:                Core
    Integral Cache:           LOAD
    Schwarz Cutoff:          1E-12
    Fitting Condition:       1E-10

   => Auxiliary Basis Set <=

  Basis Set: (AUG-CC-PVDZ AUX)
    Blend: AUG-CC-PVDZ-JKFIT
    Number of shells: 376
    Number of basis functions: 1116
    Number of Cartesian functions: 1290
    Spherical Harmonics?: true
    Max angular momentum: 3

  Minimum eigenvalue in the overlap matrix is 2.1836969952E-05.
  Reciprocal condition number of the overlap matrix is 1.8394435758E-06.
    Using symmetric orthogonalization.

  ==> Pre-Iterations <==

  SCF Guess: Superposition of Atomic Densities via on-the-fly atomic UHF (no occupation information).

   -------------------------
    Irrep   Nso     Nmo
   -------------------------
     A        302     302
   -------------------------
    Total     302     302
   -------------------------

  ==> Iterations <==

                           Total Energy        Delta E     RMS |[F,P]|

   @DF-RHF iter SAD:  -224.55857169541460   -2.24559e+02   0.00000e+00
   @DF-RHF iter   1:  -224.69806464742928   -1.39493e-01   1.63067e-03 DIIS
   @DF-RHF iter   2:  -224.80532026611780   -1.07256e-01   9.27384e-04 DIIS
   @DF-RHF iter   3:  -224.84168817017377   -3.63679e-02   1.74019e-04 DIIS
   @DF-RHF iter   4:  -224.84337342225530   -1.68525e-03   7.98972e-05 DIIS
   @DF-RHF iter   5:  -224.84367500296975   -3.01581e-04   1.26452e-05 DIIS
   @DF-RHF iter   6:  -224.84369234000292   -1.73370e-05   5.61871e-06 DIIS
   @DF-RHF iter   7:  -224.84369542807255   -3.08807e-06   2.19503e-06 DIIS
   @DF-RHF iter   8:  -224.84369615999080   -7.31918e-07   7.77587e-07 DIIS
   @DF-RHF iter   9:  -224.84369627078522   -1.10794e-07   1.87961e-07 DIIS
   @DF-RHF iter  10:  -224.84369627632060   -5.53538e-09   7.33125e-08 DIIS
   @DF-RHF iter  11:  -224.84369627714727   -8.26674e-10   3.26918e-08 DIIS
   @DF-RHF iter  12:  -224.84369627729916   -1.51886e-10   9.70884e-09 DIIS
   @DF-RHF iter  13:  -224.84369627731257   -1.34150e-11   3.58840e-09 DIIS
   @DF-RHF iter  14:  -224.84369627731385   -1.27898e-12   1.58275e-09 DIIS
   @DF-RHF iter  15:  -224.84369627731400   -1.42109e-13   5.27556e-10 DIIS
   @DF-RHF iter  16:  -224.84369627731436   -3.69482e-13   2.34517e-10 DIIS
   @DF-RHF iter  17:  -224.84369627731417    1.98952e-13   4.71139e-11 DIIS
  Energy and wave function converged.


  ==> Post-Iterations <==

    Orbital Energies [Eh]
    ---------------------

    Doubly Occupied:

       1A    -15.637071     2A    -15.551216     3A    -11.300916
       4A    -11.263160     5A    -11.245653     6A     -1.352867
       7A     -1.169098     8A     -1.012098     9A     -0.824390
      10A     -0.803731    11A     -0.760666    12A     -0.610096
      13A     -0.603958    14A     -0.601922    15A     -0.570942
      16A     -0.435483    17A     -0.400464    18A     -0.320685

    Virtual:

      19A      0.023210    20A      0.025388    21A      0.040746
      22A      0.041580    23A      0.044265    24A      0.049997
      25A      0.061864    26A      0.068324    27A      0.077157
      28A      0.086847    29A      0.089096    30A      0.098165
      31A      0.101397    32A      0.120831    33A      0.125259
      34A      0.125577    35A      0.125729    36A      0.127511
      37A      0.127906    38A      0.133472    39A      0.133773
      40A      0.134688    41A      0.138792    42A      0.140942
      43A      0.156500    44A      0.157435    45A      0.158699
      46A      0.171988    47A      0.178189    48A      0.187224
      49A      0.192786    50A      0.208373    51A      0.210032
      52A      0.211559    53A      0.213140    54A      0.220268
      55A      0.220928    56A      0.223198    57A      0.232359
      58A      0.233733    59A      0.241408    60A      0.261605
      61A      0.267803    62A      0.272763    63A      0.277911
      64A      0.300011    65A      0.301746    66A      0.307088
      67A      0.314442    68A      0.319896    69A      0.338197
      70A      0.360786    71A      0.361488    72A      0.370745
      73A      0.376197    74A      0.379800    75A      0.388291
      76A      0.394075    77A      0.397097    78A      0.417031
      79A      0.428100    80A      0.429000    81A      0.435881
      82A      0.441045    83A      0.449666    84A      0.452059
      85A      0.452777    86A      0.466350    87A      0.468806
      88A      0.481229    89A      0.481694    90A      0.486283
      91A      0.488151    92A      0.518014    93A      0.521235
      94A      0.536610    95A      0.538885    96A      0.543804
      97A      0.551710    98A      0.556382    99A      0.556468
     100A      0.568280   101A      0.576474   102A      0.580027
     103A      0.588212   104A      0.594249   105A      0.598939
     106A      0.607152   107A      0.612680   108A      0.616080
     109A      0.618987   110A      0.636538   111A      0.640455
     112A      0.652504   113A      0.669282   114A      0.671337
     115A      0.678185   116A      0.678308   117A      0.683874
     118A      0.684463   119A      0.711864   120A      0.714698
     121A      0.725758   122A      0.736800   123A      0.741238
     124A      0.756778   125A      0.762698   126A      0.767400
     127A      0.790929   128A      0.793606   129A      0.798898
     130A      0.809747   131A      0.811153   132A      0.813090
     133A      0.823977   134A      0.837307   135A      0.860313
     136A      0.860398   137A      0.871425   138A      0.885765
     139A      0.887228   140A      0.889823   141A      0.910427
     142A      0.920323   143A      0.927586   144A      0.954351
     145A      0.969406   146A      0.976964   147A      0.992504
     148A      0.998360   149A      1.010706   150A      1.016133
     151A      1.017404   152A      1.030676   153A      1.059713
     154A      1.077353   155A      1.079287   156A      1.084552
     157A      1.104342   158A      1.116707   159A      1.126983
     160A      1.133141   161A      1.140497   162A      1.149565
     163A      1.167170   164A      1.171587   165A      1.174732
     166A      1.198234   167A      1.211258   168A      1.217445
     169A      1.260721   170A      1.278709   171A      1.291319
     172A      1.297675   173A      1.302539   174A      1.313243
     175A      1.318788   176A      1.348262   177A      1.384786
     178A      1.385028   179A      1.398145   180A      1.451143
     181A      1.495598   182A      1.503288   183A      1.516520
     184A      1.518410   185A      1.542039   186A      1.574127
     187A      1.574285   188A      1.596381   189A      1.652159
     190A      1.661637   191A      1.671505   192A      1.705286
     193A      1.724477   194A      1.782643   195A      1.799067
     196A      1.807063   197A      1.864950   198A      1.881477
     199A      1.924391   200A      1.964987   201A      2.022005
     202A      2.025429   203A      2.040433   204A      2.072981
     205A      2.101780   206A      2.107054   207A      2.120148
     208A      2.126759   209A      2.132132   210A      2.135965
     211A      2.150249   212A      2.168670   213A      2.178815
     214A      2.185915   215A      2.230493   216A      2.253530
     217A      2.267082   218A      2.275963   219A      2.300924
     220A      2.309458   221A      2.327933   222A      2.332072
     223A      2.377587   224A      2.406360   225A      2.414186
     226A      2.417758   227A      2.456562   228A      2.471621
     229A      2.494737   230A      2.496919   231A      2.514025
     232A      2.526650   233A      2.545345   234A      2.546285
     235A      2.577717   236A      2.585743   237A      2.600718
     238A      2.633765   239A      2.697073   240A      2.734093
     241A      2.747025   242A      2.767089   243A      2.791186
     244A      2.794149   245A      2.803444   246A      2.829751
     247A      2.837641   248A      2.867213   249A      2.896628
     250A      2.934181   251A      2.950300   252A      2.952738
     253A      2.980862   254A      3.044383   255A      3.051201
     256A      3.069910   257A      3.077089   258A      3.132770
     259A      3.160526   260A      3.183869   261A      3.199163
     262A      3.208795   263A      3.214305   264A      3.334816
     265A      3.341766   266A      3.354572   267A      3.355655
     268A      3.363826   269A      3.459568   270A      3.495364
     271A      3.518552   272A      3.570492   273A      3.609845
     274A      3.708153   275A      3.727647   276A      3.768294
     277A      3.779308   278A      3.799097   279A      3.858887
     280A      3.871642   281A      4.004812   282A      4.109022
     283A      4.213672   284A      4.637692   285A      4.639748
     286A      4.696923   287A      4.772728   288A      4.881007
     289A      5.022362   290A      5.255622   291A      5.374135
     292A      5.495780   293A      5.611339   294A      5.717220
     295A      5.884858   296A      6.090624   297A      6.199095
     298A     18.256466   299A     18.591038   300A     19.301426
     301A     25.312869   302A     25.454191

    Final Occupation by Irrep:
              A
    DOCC [    18 ]

  @DF-RHF Final Energy:  -224.84369627731417

   => Energetics <=

    Nuclear Repulsion Energy =            164.0866959941843959
    One-Electron Energy =                -628.9319562971627420
    Two-Electron Energy =                 240.0015640256641518
    Total Energy =                       -224.8436962773141659

Computation Completed


Properties will be evaluated at   0.000000,   0.000000,   0.000000 [a0]

Properties computed using the SCF density matrix

  Nuclear Dipole Moment: [e a0]
     X:  -102.4221      Y:  -129.0981      Z:   128.4908

  Electronic Dipole Moment: [e a0]
     X:   103.2259      Y:   129.2613      Z:  -129.8232

  Dipole Moment: [e a0]
     X:     0.8038      Y:     0.1633      Z:    -1.3324     Total:     1.5646

  Dipole Moment: [D]
     X:     2.0431      Y:     0.4150      Z:    -3.3867     Total:     3.9769


*** tstop() called on ds1 at Tue Sep 14 16:14:20 2021
Module time:
	user time   =      16.06 seconds =       0.27 minutes
	system time =       0.34 seconds =       0.01 minutes
	total time  =          4 seconds =       0.07 minutes
Total time:
	user time   =      38.55 seconds =       0.64 minutes
	system time =       0.90 seconds =       0.02 minutes
	total time  =          9 seconds =       0.15 minutes

  //>>>>>>>>>>>>>>>>>>>>>>>>>>>>>>>>>>>//
  //            Monomer B HF           //
  //<<<<<<<<<<<<<<<<<<<<<<<<<<<<<<<<<<<//


*** tstart() called on ds1
*** at Tue Sep 14 16:14:20 2021

   => Loading Basis Set <=

    Name: AUG-CC-PVDZ
    Role: ORBITAL
    Keyword: BASIS
    atoms 1-2, 10-11 entry N          line   218 file /theoryfs2/ds/csargent/miniconda3/envs/cle/share/psi4/basis/aug-cc-pvdz.gbs
    atoms 3-6, 12-15 entry H          line    40 file /theoryfs2/ds/csargent/miniconda3/envs/cle/share/psi4/basis/aug-cc-pvdz.gbs
    atoms 7-9, 16-18 entry C          line   182 file /theoryfs2/ds/csargent/miniconda3/envs/cle/share/psi4/basis/aug-cc-pvdz.gbs


         ---------------------------------------------------------
                                   SCF
               by Justin Turney, Rob Parrish, Andy Simmonett
                          and Daniel G. A. Smith
                              RHF Reference
                        6 Threads,   6675 MiB Core
         ---------------------------------------------------------

  ==> Geometry <==

    Molecular point group: c1
    Full point group: C1

    Geometry (in Bohr), charge = 0, multiplicity = 1:

       Center              X                  Y                   Z               Mass
    ------------   -----------------  -----------------  -----------------  -----------------
      Gh(N)          -4.293096210000    -3.068374310000     5.305162310000    14.003074004430
      Gh(N)          -2.158473710000    -2.926272960000     1.720374480000    14.003074004430
      Gh(H)          -0.025455870000    -6.359035750000     2.220464520000     1.007825032230
      Gh(H)          -2.685669680000    -6.532602410000     6.614459540000     1.007825032230
      Gh(H)          -4.743884230000    -0.006090060000     2.756159680000     1.007825032230
      Gh(H)          -1.410455400000    -2.247231470000     0.000000000000     1.007825032230
      Gh(C)          -1.437379910000    -5.075048480000     2.940658910000    12.000000000000
      Gh(C)          -2.769007820000    -5.146099160000     5.135228800000    12.000000000000
      Gh(C)          -3.859550360000    -1.777281980000     3.210934110000    12.000000000000
         N           -8.330262960000   -36.628654920000    27.674885760000    14.003074004430
         N          -10.464885460000   -36.770756280000    31.259673600000    14.003074004430
         H          -12.597903310000   -33.337993480000    30.759583560000     1.007825032230
         H           -9.937689490000   -33.164426820000    26.365588540000     1.007825032230
         H           -7.879474950000   -39.690939170000    30.223888400000     1.007825032230
         H          -11.212903770000   -37.449797760000    32.980048080000     1.007825032230
         C          -11.185979260000   -34.621980750000    30.039389160000    12.000000000000
         C           -9.854351350000   -34.550930070000    27.844819270000    12.000000000000
         C           -8.763808820000   -37.919747250000    29.769113960000    12.000000000000

  Running in c1 symmetry.

  Rotational constants: A =      0.09600  B =      0.00038  C =      0.00038 [cm^-1]
  Rotational constants: A =   2878.12477  B =     11.53723  C =     11.49980 [MHz]
  Nuclear repulsion =  164.086695882335846

  Charge       = 0
  Multiplicity = 1
  Electrons    = 36
  Nalpha       = 18
  Nbeta        = 18

  ==> Algorithm <==

  SCF Algorithm Type is DF.
  DIIS enabled.
  MOM disabled.
  Fractional occupation disabled.
  Guess Type is SAD.
  Energy threshold   = 1.00e-10
  Density threshold  = 1.00e-10
  Integral threshold = 1.00e-12

  ==> Primary Basis <==

  Basis Set: AUG-CC-PVDZ
    Blend: AUG-CC-PVDZ
    Number of shells: 130
    Number of basis functions: 302
    Number of Cartesian functions: 322
    Spherical Harmonics?: true
    Max angular momentum: 2

   => Loading Basis Set <=

    Name: (AUG-CC-PVDZ AUX)
    Role: JKFIT
    Keyword: DF_BASIS_SCF
    atoms 1-2, 10-11 entry N          line   212 file /theoryfs2/ds/csargent/miniconda3/envs/cle/share/psi4/basis/aug-cc-pvdz-jkfit.gbs
    atoms 3-6, 12-15 entry H          line    70 file /theoryfs2/ds/csargent/miniconda3/envs/cle/share/psi4/basis/aug-cc-pvdz-jkfit.gbs
    atoms 7-9, 16-18 entry C          line   154 file /theoryfs2/ds/csargent/miniconda3/envs/cle/share/psi4/basis/aug-cc-pvdz-jkfit.gbs

  ==> Integral Setup <==

  ==> DiskDFJK: Density-Fitted J/K Matrices <==

    J tasked:                  Yes
    K tasked:                  Yes
    wK tasked:                  No
    OpenMP threads:              6
    Integrals threads:           6
    Memory [MiB]:             5006
    Algorithm:                Core
    Integral Cache:           LOAD
    Schwarz Cutoff:          1E-12
    Fitting Condition:       1E-10

   => Auxiliary Basis Set <=

  Basis Set: (AUG-CC-PVDZ AUX)
    Blend: AUG-CC-PVDZ-JKFIT
    Number of shells: 376
    Number of basis functions: 1116
    Number of Cartesian functions: 1290
    Spherical Harmonics?: true
    Max angular momentum: 3

  Minimum eigenvalue in the overlap matrix is 2.1836969952E-05.
  Reciprocal condition number of the overlap matrix is 1.8394435758E-06.
    Using symmetric orthogonalization.

  ==> Pre-Iterations <==

  SCF Guess: Superposition of Atomic Densities via on-the-fly atomic UHF (no occupation information).

   -------------------------
    Irrep   Nso     Nmo
   -------------------------
     A        302     302
   -------------------------
    Total     302     302
   -------------------------

  ==> Iterations <==

                           Total Energy        Delta E     RMS |[F,P]|

   @DF-RHF iter SAD:  -224.55857168547220   -2.24559e+02   0.00000e+00
   @DF-RHF iter   1:  -224.69806464742203   -1.39493e-01   1.63067e-03 DIIS
   @DF-RHF iter   2:  -224.80532026576500   -1.07256e-01   9.27384e-04 DIIS
   @DF-RHF iter   3:  -224.84168816969117   -3.63679e-02   1.74019e-04 DIIS
   @DF-RHF iter   4:  -224.84337342178395   -1.68525e-03   7.98972e-05 DIIS
   @DF-RHF iter   5:  -224.84367500250212   -3.01581e-04   1.26452e-05 DIIS
   @DF-RHF iter   6:  -224.84369233953549   -1.73370e-05   5.61871e-06 DIIS
   @DF-RHF iter   7:  -224.84369542760493   -3.08807e-06   2.19503e-06 DIIS
   @DF-RHF iter   8:  -224.84369615952338   -7.31918e-07   7.77587e-07 DIIS
   @DF-RHF iter   9:  -224.84369627031728   -1.10794e-07   1.87961e-07 DIIS
   @DF-RHF iter  10:  -224.84369627585306   -5.53578e-09   7.33125e-08 DIIS
   @DF-RHF iter  11:  -224.84369627667965   -8.26589e-10   3.26918e-08 DIIS
   @DF-RHF iter  12:  -224.84369627683134   -1.51687e-10   9.70884e-09 DIIS
   @DF-RHF iter  13:  -224.84369627684461   -1.32729e-11   3.58840e-09 DIIS
   @DF-RHF iter  14:  -224.84369627684603   -1.42109e-12   1.58275e-09 DIIS
   @DF-RHF iter  15:  -224.84369627684652   -4.83169e-13   5.27556e-10 DIIS
   @DF-RHF iter  16:  -224.84369627684652    0.00000e+00   2.34517e-10 DIIS
   @DF-RHF iter  17:  -224.84369627684669   -1.70530e-13   4.71137e-11 DIIS
  Energy and wave function converged.


  ==> Post-Iterations <==

    Orbital Energies [Eh]
    ---------------------

    Doubly Occupied:

       1A    -15.637071     2A    -15.551216     3A    -11.300916
       4A    -11.263160     5A    -11.245653     6A     -1.352867
       7A     -1.169098     8A     -1.012098     9A     -0.824390
      10A     -0.803731    11A     -0.760666    12A     -0.610096
      13A     -0.603958    14A     -0.601922    15A     -0.570942
      16A     -0.435483    17A     -0.400464    18A     -0.320685

    Virtual:

      19A      0.023210    20A      0.025388    21A      0.040746
      22A      0.041580    23A      0.044265    24A      0.049997
      25A      0.061864    26A      0.068324    27A      0.077157
      28A      0.086847    29A      0.089096    30A      0.098165
      31A      0.101397    32A      0.120831    33A      0.125259
      34A      0.125577    35A      0.125729    36A      0.127511
      37A      0.127906    38A      0.133472    39A      0.133773
      40A      0.134688    41A      0.138792    42A      0.140942
      43A      0.156500    44A      0.157435    45A      0.158699
      46A      0.171988    47A      0.178189    48A      0.187224
      49A      0.192786    50A      0.208373    51A      0.210032
      52A      0.211559    53A      0.213140    54A      0.220268
      55A      0.220928    56A      0.223198    57A      0.232359
      58A      0.233733    59A      0.241408    60A      0.261605
      61A      0.267803    62A      0.272763    63A      0.277911
      64A      0.300011    65A      0.301746    66A      0.307088
      67A      0.314442    68A      0.319896    69A      0.338197
      70A      0.360786    71A      0.361488    72A      0.370745
      73A      0.376197    74A      0.379800    75A      0.388291
      76A      0.394075    77A      0.397097    78A      0.417031
      79A      0.428100    80A      0.429000    81A      0.435881
      82A      0.441045    83A      0.449666    84A      0.452059
      85A      0.452777    86A      0.466350    87A      0.468806
      88A      0.481229    89A      0.481694    90A      0.486283
      91A      0.488151    92A      0.518014    93A      0.521235
      94A      0.536610    95A      0.538885    96A      0.543804
      97A      0.551710    98A      0.556382    99A      0.556468
     100A      0.568280   101A      0.576474   102A      0.580027
     103A      0.588212   104A      0.594249   105A      0.598939
     106A      0.607152   107A      0.612680   108A      0.616080
     109A      0.618987   110A      0.636538   111A      0.640455
     112A      0.652504   113A      0.669282   114A      0.671337
     115A      0.678185   116A      0.678308   117A      0.683874
     118A      0.684463   119A      0.711864   120A      0.714698
     121A      0.725758   122A      0.736800   123A      0.741238
     124A      0.756778   125A      0.762698   126A      0.767400
     127A      0.790929   128A      0.793606   129A      0.798898
     130A      0.809747   131A      0.811153   132A      0.813090
     133A      0.823977   134A      0.837307   135A      0.860313
     136A      0.860398   137A      0.871425   138A      0.885765
     139A      0.887228   140A      0.889823   141A      0.910427
     142A      0.920323   143A      0.927586   144A      0.954351
     145A      0.969406   146A      0.976964   147A      0.992504
     148A      0.998360   149A      1.010706   150A      1.016133
     151A      1.017404   152A      1.030676   153A      1.059713
     154A      1.077353   155A      1.079287   156A      1.084552
     157A      1.104342   158A      1.116707   159A      1.126983
     160A      1.133141   161A      1.140497   162A      1.149565
     163A      1.167170   164A      1.171587   165A      1.174732
     166A      1.198234   167A      1.211258   168A      1.217445
     169A      1.260721   170A      1.278709   171A      1.291319
     172A      1.297675   173A      1.302539   174A      1.313243
     175A      1.318788   176A      1.348262   177A      1.384786
     178A      1.385028   179A      1.398145   180A      1.451143
     181A      1.495598   182A      1.503288   183A      1.516520
     184A      1.518410   185A      1.542039   186A      1.574127
     187A      1.574285   188A      1.596381   189A      1.652159
     190A      1.661637   191A      1.671505   192A      1.705286
     193A      1.724477   194A      1.782643   195A      1.799067
     196A      1.807063   197A      1.864950   198A      1.881477
     199A      1.924391   200A      1.964987   201A      2.022005
     202A      2.025429   203A      2.040433   204A      2.072981
     205A      2.101780   206A      2.107054   207A      2.120148
     208A      2.126759   209A      2.132132   210A      2.135965
     211A      2.150249   212A      2.168670   213A      2.178815
     214A      2.185915   215A      2.230494   216A      2.253530
     217A      2.267082   218A      2.275963   219A      2.300924
     220A      2.309458   221A      2.327933   222A      2.332072
     223A      2.377587   224A      2.406360   225A      2.414186
     226A      2.417758   227A      2.456562   228A      2.471621
     229A      2.494737   230A      2.496919   231A      2.514025
     232A      2.526650   233A      2.545345   234A      2.546285
     235A      2.577717   236A      2.585743   237A      2.600718
     238A      2.633765   239A      2.697073   240A      2.734093
     241A      2.747025   242A      2.767089   243A      2.791186
     244A      2.794149   245A      2.803444   246A      2.829751
     247A      2.837641   248A      2.867213   249A      2.896628
     250A      2.934181   251A      2.950300   252A      2.952738
     253A      2.980862   254A      3.044383   255A      3.051201
     256A      3.069910   257A      3.077089   258A      3.132770
     259A      3.160526   260A      3.183869   261A      3.199163
     262A      3.208795   263A      3.214305   264A      3.334816
     265A      3.341766   266A      3.354572   267A      3.355655
     268A      3.363826   269A      3.459568   270A      3.495364
     271A      3.518552   272A      3.570492   273A      3.609845
     274A      3.708153   275A      3.727647   276A      3.768294
     277A      3.779308   278A      3.799097   279A      3.858887
     280A      3.871642   281A      4.004812   282A      4.109022
     283A      4.213672   284A      4.637692   285A      4.639748
     286A      4.696923   287A      4.772728   288A      4.881007
     289A      5.022362   290A      5.255622   291A      5.374135
     292A      5.495780   293A      5.611339   294A      5.717220
     295A      5.884858   296A      6.090624   297A      6.199095
     298A     18.256466   299A     18.591038   300A     19.301426
     301A     25.312869   302A     25.454191

    Final Occupation by Irrep:
              A
    DOCC [    18 ]

  @DF-RHF Final Energy:  -224.84369627684669

   => Energetics <=

    Nuclear Repulsion Energy =            164.0866958823358459
    One-Electron Energy =                -628.9319560742942485
    Two-Electron Energy =                 240.0015639151117171
    Total Energy =                       -224.8436962768466856

Computation Completed


Properties will be evaluated at   0.000000,   0.000000,   0.000000 [a0]

Properties computed using the SCF density matrix

  Nuclear Dipole Moment: [e a0]
     X:  -352.0188      Y: -1299.9950      Z:  1058.7910

  Electronic Dipole Moment: [e a0]
     X:   351.2150      Y:  1299.8317      Z: -1057.4585

  Dipole Moment: [e a0]
     X:    -0.8038      Y:    -0.1633      Z:     1.3324     Total:     1.5646

  Dipole Moment: [D]
     X:    -2.0431      Y:    -0.4150      Z:     3.3867     Total:     3.9769


*** tstop() called on ds1 at Tue Sep 14 16:14:23 2021
Module time:
	user time   =      16.02 seconds =       0.27 minutes
	system time =       0.34 seconds =       0.01 minutes
	total time  =          3 seconds =       0.05 minutes
Total time:
	user time   =      54.67 seconds =       0.91 minutes
	system time =       1.24 seconds =       0.02 minutes
	total time  =         12 seconds =       0.20 minutes
  Constructing Basis Sets for SAPT...

   => Loading Basis Set <=

    Name: (AUG-CC-PVDZ AUX)
    Role: RIFIT
    Keyword: DF_BASIS_SAPT
    atoms 1-2, 10-11 entry N          line   158 file /theoryfs2/ds/csargent/miniconda3/envs/cle/share/psi4/basis/aug-cc-pvdz-ri.gbs
    atoms 3-6, 12-15 entry H          line    30 file /theoryfs2/ds/csargent/miniconda3/envs/cle/share/psi4/basis/aug-cc-pvdz-ri.gbs
    atoms 7-9, 16-18 entry C          line   112 file /theoryfs2/ds/csargent/miniconda3/envs/cle/share/psi4/basis/aug-cc-pvdz-ri.gbs


  //>>>>>>>>>>>>>>>>>>>>>>>>>>>>>>>>>>>//
  //               SAPT0               //
  //<<<<<<<<<<<<<<<<<<<<<<<<<<<<<<<<<<<//


*** tstart() called on ds1
*** at Tue Sep 14 16:14:23 2021

        SAPT0
    Ed Hohenstein
     6 June 2009

      Orbital Information
  --------------------------
    NSO        =       302
    NMO        =       302
    NRI        =       904
    NOCC A     =        18
    NOCC B     =        18
    FOCC A     =         5
    FOCC B     =         5
    NVIR A     =       284
    NVIR B     =       284

    Elst10,r            =     0.000001318305 [Eh]
    Exch10              =     0.000000000000 [Eh]
    Exch10 (S^2)        =     0.000000000000 [Eh]

    Iter     Energy [mEh]          dE [mEh]         Residual      Time [s]
       1      -0.00001984       0.000019843       0.041475558             0
       2      -0.00001911      -0.000000732       0.011815140             1
       3      -0.00002124       0.000002125       0.003084917             1
       4      -0.00002131       0.000000072       0.001364442             1
       5      -0.00002127      -0.000000041       0.000741345             1
       6      -0.00002125      -0.000000020       0.000239792             1
       7      -0.00002125       0.000000007       0.000071735             1
       8      -0.00002126       0.000000002       0.000021992             1
       9      -0.00002126      -0.000000000       0.000008325             1
      10      -0.00002125      -0.000000000       0.000002367             2
      11      -0.00002125       0.000000000       0.000000725             2

    CHF Iterations converged


    Iter     Energy [mEh]          dE [mEh]         Residual      Time [s]
       1      -0.00001984       0.000019843       0.041475557             0
       2      -0.00001911      -0.000000732       0.011815140             0
       3      -0.00002124       0.000002125       0.003084917             0
       4      -0.00002131       0.000000072       0.001364442             0
       5      -0.00002127      -0.000000041       0.000741345             0
       6      -0.00002125      -0.000000020       0.000239792             0
       7      -0.00002125       0.000000007       0.000071735             1
       8      -0.00002126       0.000000002       0.000021992             1
       9      -0.00002126      -0.000000000       0.000008325             1
      10      -0.00002125      -0.000000000       0.000002367             1
      11      -0.00002125       0.000000000       0.000000725             1

    CHF Iterations converged

    Ind20,r (A<-B)      =    -0.000000021255 [Eh]
    Ind20,r (B<-A)      =    -0.000000021255 [Eh]
    Ind20,r             =    -0.000000042510 [Eh]
    Exch-Ind20,r (A<-B) =     0.000000000000 [Eh]
    Exch-Ind20,r (B<-A) =     0.000000000000 [Eh]
    Exch-Ind20,r        =     0.000000000000 [Eh]
    Disp20              =    -0.000000264858 [Eh]
    Disp20 (SS)         =    -0.000000132429 [Eh]
    Disp20 (OS)         =    -0.000000132429 [Eh]
    Exch-Disp20         =     0.000000000000 [Eh]
    Exch-Disp20 (SS)    =     0.000000000000 [Eh]
    Exch-Disp20 (OS)    =     0.000000000000 [Eh]

    SAPT Results
  --------------------------------------------------------------------------------------------------------
    Electrostatics                  0.00131831 [mEh]       0.00082725 [kcal/mol]       0.00346121 [kJ/mol]
      Elst10,r                      0.00131831 [mEh]       0.00082725 [kcal/mol]       0.00346121 [kJ/mol]

    Exchange                        0.00000000 [mEh]       0.00000000 [kcal/mol]       0.00000000 [kJ/mol]
      Exch10                        0.00000000 [mEh]       0.00000000 [kcal/mol]       0.00000000 [kJ/mol]
      Exch10(S^2)                   0.00000000 [mEh]       0.00000000 [kcal/mol]       0.00000000 [kJ/mol]

    Induction                      -0.00002782 [mEh]      -0.00001746 [kcal/mol]      -0.00007305 [kJ/mol]
      Ind20,r                      -0.00004251 [mEh]      -0.00002668 [kcal/mol]      -0.00011161 [kJ/mol]
      Exch-Ind20,r                  0.00000000 [mEh]       0.00000000 [kcal/mol]       0.00000000 [kJ/mol]
      delta HF,r (2)                0.00001469 [mEh]       0.00000922 [kcal/mol]       0.00003856 [kJ/mol]

    Dispersion                     -0.00026486 [mEh]      -0.00016620 [kcal/mol]      -0.00069538 [kJ/mol]
      Disp20                       -0.00026486 [mEh]      -0.00016620 [kcal/mol]      -0.00069538 [kJ/mol]
      Exch-Disp20                   0.00000000 [mEh]       0.00000000 [kcal/mol]       0.00000000 [kJ/mol]
      Disp20 (SS)                  -0.00013243 [mEh]      -0.00008310 [kcal/mol]      -0.00034769 [kJ/mol]
      Disp20 (OS)                  -0.00013243 [mEh]      -0.00008310 [kcal/mol]      -0.00034769 [kJ/mol]
      Exch-Disp20 (SS)              0.00000000 [mEh]       0.00000000 [kcal/mol]       0.00000000 [kJ/mol]
      Exch-Disp20 (OS)              0.00000000 [mEh]       0.00000000 [kcal/mol]       0.00000000 [kJ/mol]

  Total HF                          0.00129048 [mEh]       0.00080979 [kcal/mol]       0.00338816 [kJ/mol]
  Total SAPT0                       0.00102562 [mEh]       0.00064359 [kcal/mol]       0.00269277 [kJ/mol]

  Special recipe for scaled SAPT0 (see Manual):
    Electrostatics sSAPT0           0.00131831 [mEh]       0.00082725 [kcal/mol]       0.00346121 [kJ/mol]
    Exchange sSAPT0                 0.00000000 [mEh]       0.00000000 [kcal/mol]       0.00000000 [kJ/mol]
    Induction sSAPT0               -0.00002782 [mEh]      -0.00001746 [kcal/mol]      -0.00007305 [kJ/mol]
    Dispersion sSAPT0              -0.00026486 [mEh]      -0.00016620 [kcal/mol]      -0.00069538 [kJ/mol]
  Total sSAPT0                      0.00102562 [mEh]       0.00064359 [kcal/mol]       0.00269277 [kJ/mol]
  --------------------------------------------------------------------------------------------------------

*** tstop() called on ds1 at Tue Sep 14 16:14:33 2021
Module time:
	user time   =      46.09 seconds =       0.77 minutes
	system time =       3.89 seconds =       0.06 minutes
	total time  =         10 seconds =       0.17 minutes
Total time:
	user time   =     101.51 seconds =       1.69 minutes
	system time =       5.15 seconds =       0.09 minutes
	total time  =         22 seconds =       0.37 minutes


Warning! sapt0 does not have an associated derived wavefunction.The returned wavefunction is the dimer SCF wavefunction.


    Psi4 stopped on: Tuesday, 14 September 2021 04:14PM
    Psi4 wall time for execution: 0:00:21.74

*** Psi4 exiting successfully. Buy a developer a beer!
