
    -----------------------------------------------------------------------
          Psi4: An Open-Source Ab Initio Electronic Structure Package
                               Psi4 1.4rc3 

                         Git: Rev {HEAD} 080dba6 


    D. G. A. Smith, L. A. Burns, A. C. Simmonett, R. M. Parrish,
    M. C. Schieber, R. Galvelis, P. Kraus, H. Kruse, R. Di Remigio,
    A. Alenaizan, A. M. James, S. Lehtola, J. P. Misiewicz, M. Scheurer,
    R. A. Shaw, J. B. Schriber, Y. Xie, Z. L. Glick, D. A. Sirianni,
    J. S. O'Brien, J. M. Waldrop, A. Kumar, E. G. Hohenstein,
    B. P. Pritchard, B. R. Brooks, H. F. Schaefer III, A. Yu. Sokolov,
    K. Patkowski, A. E. DePrince III, U. Bozkaya, R. A. King,
    F. A. Evangelista, J. M. Turney, T. D. Crawford, C. D. Sherrill,
    J. Chem. Phys. 152(18) 184108 (2020). https://doi.org/10.1063/5.0006002

                            Additional Code Authors
    E. T. Seidl, C. L. Janssen, E. F. Valeev, M. L. Leininger,
    J. F. Gonthier, R. M. Richard, H. R. McAlexander, M. Saitow, X. Wang,
    P. Verma, and M. H. Lechner

             Previous Authors, Complete List of Code Contributors,
                       and Citations for Specific Modules
    https://github.com/psi4/psi4/blob/master/codemeta.json
    https://github.com/psi4/psi4/graphs/contributors
    http://psicode.org/psi4manual/master/introduction.html#citing-psifour

    -----------------------------------------------------------------------


    Psi4 started on: Tuesday, 14 September 2021 06:27PM

    Process ID: 5927
    Host:       ds1
    PSIDATADIR: /theoryfs2/ds/csargent/miniconda3/envs/cle/share/psi4
    Memory:     500.0 MiB
    Threads:    6
    
  ==> Input File <==

--------------------------------------------------------------------------
# PSI4 file produced by CrystaLattE

# Generated from:               imidazole.xyz
# Psithon input for N-mer:      2mer-0+347
# Number of atoms per monomer:  [9, 9]
# Number of replicas:           1
# COM priority:                 1.973516876451e-05
# Minimum COM separations:      19.582 
# Separation priority:          2.139192667642e-05
# Minimum monomer separations:  19.063 
# Cutoff priority:              5.938360176235e-07
# Nuclear repulsion energy:     363.0792386594261

memory 7 GB

molecule Dimer_0_347 {
  N           -4.29309621      -3.06837431       5.30516231 
  N           -2.15847371      -2.92627296       1.72037448 
  H           -0.02545587      -6.35903575       2.22046452 
  H           -2.68566968      -6.53260241       6.61445954 
  H           -4.74388423      -0.00609006       2.75615968 
  H           -1.41045540      -2.24723147       0.00000000 
  C           -1.43737991      -5.07504848       2.94065891 
  C           -2.76900782      -5.14609916       5.13522880 
  C           -3.85955036      -1.77728198       3.21093411 
--
  N           29.29067178      14.12182991      11.49074204 
  N           27.15604928      13.97972855      15.07552988 
  H           25.02303144      17.41249134      14.57543984 
  H           27.68324525      17.58605800      10.18144482 
  H           29.74145980      11.05954565      14.03974468 
  H           26.40803097      13.30068706      16.79590435 
  C           26.43495548      16.12850408      13.85524544 
  C           27.76658339      16.19955476      11.66067555 
  C           28.85712593      12.83073757      13.58497024 
units = au
no_com
no_reorient
}

set {
  e_convergence 10
  d_convergence 10
  scf_type df
  mp2_type df
  cc_type df
  freeze_core true
}

energy('sapt0/aug-cc-pvdz')

--------------------------------------------------------------------------

  Memory set to   6.519 GiB by Python driver.

Scratch directory: /scratch/csargent/psi4.31446.79897/

Scratch directory: /scratch/csargent/psi4.31446.79897/

  //>>>>>>>>>>>>>>>>>>>>>>>>>>>>>>>>>>>//
  //              Dimer HF             //
  //<<<<<<<<<<<<<<<<<<<<<<<<<<<<<<<<<<<//


*** tstart() called on ds1
*** at Tue Sep 14 18:27:29 2021

   => Loading Basis Set <=

    Name: AUG-CC-PVDZ
    Role: ORBITAL
    Keyword: BASIS
    atoms 1-2, 10-11 entry N          line   218 file /theoryfs2/ds/csargent/miniconda3/envs/cle/share/psi4/basis/aug-cc-pvdz.gbs 
    atoms 3-6, 12-15 entry H          line    40 file /theoryfs2/ds/csargent/miniconda3/envs/cle/share/psi4/basis/aug-cc-pvdz.gbs 
    atoms 7-9, 16-18 entry C          line   182 file /theoryfs2/ds/csargent/miniconda3/envs/cle/share/psi4/basis/aug-cc-pvdz.gbs 


         ---------------------------------------------------------
                                   SCF
               by Justin Turney, Rob Parrish, Andy Simmonett
                          and Daniel G. A. Smith
                              RHF Reference
                        6 Threads,   6675 MiB Core
         ---------------------------------------------------------

  ==> Geometry <==

    Molecular point group: c1
    Full point group: C1

    Geometry (in Bohr), charge = 0, multiplicity = 1:

       Center              X                  Y                   Z               Mass       
    ------------   -----------------  -----------------  -----------------  -----------------
         N           -4.293096210000    -3.068374310000     5.305162310000    14.003074004430
         N           -2.158473710000    -2.926272960000     1.720374480000    14.003074004430
         H           -0.025455870000    -6.359035750000     2.220464520000     1.007825032230
         H           -2.685669680000    -6.532602410000     6.614459540000     1.007825032230
         H           -4.743884230000    -0.006090060000     2.756159680000     1.007825032230
         H           -1.410455400000    -2.247231470000     0.000000000000     1.007825032230
         C           -1.437379910000    -5.075048480000     2.940658910000    12.000000000000
         C           -2.769007820000    -5.146099160000     5.135228800000    12.000000000000
         C           -3.859550360000    -1.777281980000     3.210934110000    12.000000000000
         N           29.290671780000    14.121829910000    11.490742040000    14.003074004430
         N           27.156049280000    13.979728550000    15.075529880000    14.003074004430
         H           25.023031440000    17.412491340000    14.575439840000     1.007825032230
         H           27.683245250000    17.586058000000    10.181444820000     1.007825032230
         H           29.741459800000    11.059545650000    14.039744680000     1.007825032230
         H           26.408030970000    13.300687060000    16.795904350000     1.007825032230
         C           26.434955480000    16.128504080000    13.855245440000    12.000000000000
         C           27.766583390000    16.199554760000    11.660675550000    12.000000000000
         C           28.857125930000    12.830737570000    13.584970240000    12.000000000000

  Running in c1 symmetry.

  Rotational constants: A =      0.02293  B =      0.00075  C =      0.00073 [cm^-1]
  Rotational constants: A =    687.51758  B =     22.53876  C =     22.01491 [MHz]
  Nuclear repulsion =  363.079238577096476

  Charge       = 0
  Multiplicity = 1
  Electrons    = 72
  Nalpha       = 36
  Nbeta        = 36

  ==> Algorithm <==

  SCF Algorithm Type is DF.
  DIIS enabled.
  MOM disabled.
  Fractional occupation disabled.
  Guess Type is SAD.
  Energy threshold   = 1.00e-10
  Density threshold  = 1.00e-10
  Integral threshold = 1.00e-12

  ==> Primary Basis <==

  Basis Set: AUG-CC-PVDZ
    Blend: AUG-CC-PVDZ
    Number of shells: 130
    Number of basis functions: 302
    Number of Cartesian functions: 322
    Spherical Harmonics?: true
    Max angular momentum: 2

   => Loading Basis Set <=

    Name: (AUG-CC-PVDZ AUX)
    Role: JKFIT
    Keyword: DF_BASIS_SCF
    atoms 1-2, 10-11 entry N          line   212 file /theoryfs2/ds/csargent/miniconda3/envs/cle/share/psi4/basis/aug-cc-pvdz-jkfit.gbs 
    atoms 3-6, 12-15 entry H          line    70 file /theoryfs2/ds/csargent/miniconda3/envs/cle/share/psi4/basis/aug-cc-pvdz-jkfit.gbs 
    atoms 7-9, 16-18 entry C          line   154 file /theoryfs2/ds/csargent/miniconda3/envs/cle/share/psi4/basis/aug-cc-pvdz-jkfit.gbs 

  ==> Integral Setup <==

  ==> DiskDFJK: Density-Fitted J/K Matrices <==

    J tasked:                  Yes
    K tasked:                  Yes
    wK tasked:                  No
    OpenMP threads:              6
    Integrals threads:           6
    Memory [MiB]:             5006
    Algorithm:                Core
    Integral Cache:           SAVE
    Schwarz Cutoff:          1E-12
    Fitting Condition:       1E-10

   => Auxiliary Basis Set <=

  Basis Set: (AUG-CC-PVDZ AUX)
    Blend: AUG-CC-PVDZ-JKFIT
    Number of shells: 376
    Number of basis functions: 1116
    Number of Cartesian functions: 1290
    Spherical Harmonics?: true
    Max angular momentum: 3

  Minimum eigenvalue in the overlap matrix is 2.1837062356E-05.
  Reciprocal condition number of the overlap matrix is 1.8394513594E-06.
    Using symmetric orthogonalization.

  ==> Pre-Iterations <==

  SCF Guess: Superposition of Atomic Densities via on-the-fly atomic UHF (no occupation information).

   -------------------------
    Irrep   Nso     Nmo    
   -------------------------
     A        302     302 
   -------------------------
    Total     302     302
   -------------------------

  ==> Iterations <==

                           Total Energy        Delta E     RMS |[F,P]|

   @DF-RHF iter SAD:  -449.11714337666865   -4.49117e+02   0.00000e+00 
   @DF-RHF iter   1:  -449.39626267888366   -2.79119e-01   2.30580e-03 DIIS
   @DF-RHF iter   2:  -449.61076445524770   -2.14502e-01   1.31090e-03 DIIS
   @DF-RHF iter   3:  -449.68342657044292   -7.26621e-02   2.45917e-04 DIIS
   @DF-RHF iter   4:  -449.68679382014881   -3.36725e-03   1.12877e-04 DIIS
   @DF-RHF iter   5:  -449.68739574031724   -6.01920e-04   1.78807e-05 DIIS
   @DF-RHF iter   6:  -449.68743039842843   -3.46581e-05   7.94285e-06 DIIS
   @DF-RHF iter   7:  -449.68743657202884   -6.17360e-06   3.10329e-06 DIIS
   @DF-RHF iter   8:  -449.68743803570806   -1.46368e-06   1.09962e-06 DIIS
   @DF-RHF iter   9:  -449.68743825733617   -2.21628e-07   2.65496e-07 DIIS
   @DF-RHF iter  10:  -449.68743826840421   -1.10680e-08   1.03330e-07 DIIS
   @DF-RHF iter  11:  -449.68743827004664   -1.64243e-09   4.62479e-08 DIIS
   @DF-RHF iter  12:  -449.68743827034990   -3.03260e-10   1.37101e-08 DIIS
   @DF-RHF iter  13:  -449.68743827037753   -2.76259e-11   5.06944e-09 DIIS
   @DF-RHF iter  14:  -449.68743827037986   -2.33058e-12   2.23829e-09 DIIS
   @DF-RHF iter  15:  -449.68743827038077   -9.09495e-13   7.45490e-10 DIIS
   @DF-RHF iter  16:  -449.68743827038048    2.84217e-13   3.31206e-10 DIIS
   @DF-RHF iter  17:  -449.68743827038099   -5.11591e-13   6.66007e-11 DIIS
  Energy and wave function converged.


  ==> Post-Iterations <==

    Orbital Energies [Eh]
    ---------------------

    Doubly Occupied:                                                      

       1A    -15.637248     2A    -15.637248     3A    -15.551425  
       4A    -15.551425     5A    -11.301113     6A    -11.301113  
       7A    -11.263354     8A    -11.263354     9A    -11.245856  
      10A    -11.245856    11A     -1.353057    12A     -1.353057  
      13A     -1.169294    14A     -1.169294    15A     -1.012293  
      16A     -1.012293    17A     -0.824576    18A     -0.824576  
      19A     -0.803927    20A     -0.803927    21A     -0.760855  
      22A     -0.760855    23A     -0.610289    24A     -0.610289  
      25A     -0.604147    26A     -0.604147    27A     -0.602107  
      28A     -0.602107    29A     -0.571152    30A     -0.571152  
      31A     -0.435700    32A     -0.435700    33A     -0.400666  
      34A     -0.400666    35A     -0.320882    36A     -0.320882  

    Virtual:                                                              

      37A      0.025352    38A      0.025352    39A      0.041445  
      40A      0.041445    41A      0.049757    42A      0.049757  
      43A      0.061688    44A      0.061688    45A      0.088897  
      46A      0.088897    47A      0.101192    48A      0.101192  
      49A      0.120645    50A      0.120645    51A      0.125383  
      52A      0.125383    53A      0.133376    54A      0.133376  
      55A      0.133535    56A      0.133535    57A      0.140710  
      58A      0.140710    59A      0.156351    60A      0.156351  
      61A      0.158555    62A      0.158556    63A      0.171703  
      64A      0.171703    65A      0.178019    66A      0.178019  
      67A      0.187081    68A      0.187081    69A      0.211341  
      70A      0.211341    71A      0.220063    72A      0.220063  
      73A      0.232145    74A      0.232145    75A      0.241227  
      76A      0.241227    77A      0.261442    78A      0.261442  
      79A      0.267544    80A      0.267544    81A      0.277663  
      82A      0.277663    83A      0.301555    84A      0.301555  
      85A      0.314224    86A      0.314224    87A      0.337990  
      88A      0.337990    89A      0.361321    90A      0.361321  
      91A      0.370580    92A      0.370580    93A      0.379641  
      94A      0.379641    95A      0.388120    96A      0.388120  
      97A      0.396928    98A      0.396928    99A      0.416810  
     100A      0.416810   101A      0.428775   102A      0.428775  
     103A      0.451866   104A      0.451866   105A      0.466163  
     106A      0.466163   107A      0.481068   108A      0.481068  
     109A      0.486087   110A      0.486087   111A      0.487948  
     112A      0.487948   113A      0.551519   114A      0.551519  
     115A      0.556200   116A      0.556200   117A      0.568094  
     118A      0.568094   119A      0.576287   120A      0.576287  
     121A      0.594079   122A      0.594079   123A      0.598766  
     124A      0.598766   125A      0.615866   126A      0.615866  
     127A      0.636346   128A      0.636346   129A      0.652298  
     130A      0.652298   131A      0.669087   132A      0.669087  
     133A      0.671138   134A      0.671138   135A      0.678011  
     136A      0.678011   137A      0.683674   138A      0.683674  
     139A      0.714512   140A      0.714512   141A      0.725591  
     142A      0.725591   143A      0.741038   144A      0.741038  
     145A      0.762494   146A      0.762494   147A      0.767200  
     148A      0.767200   149A      0.790742   150A      0.790742  
     151A      0.793408   152A      0.793408   153A      0.809565  
     154A      0.809565   155A      0.860203   156A      0.860203  
     157A      0.871226   158A      0.871226   159A      0.885557  
     160A      0.885557   161A      0.889622   162A      0.889622  
     163A      0.954154   164A      0.954154   165A      0.976781  
     166A      0.976781   167A      0.998160   168A      0.998160  
     169A      1.010492   170A      1.010492   171A      1.017198  
     172A      1.017198   173A      1.030484   174A      1.030484  
     175A      1.077145   176A      1.077145   177A      1.084359  
     178A      1.084359   179A      1.126783   180A      1.126783  
     181A      1.140290   182A      1.140290   183A      1.149374  
     184A      1.149374   185A      1.166970   186A      1.166970  
     187A      1.217237   188A      1.217237   189A      1.260542  
     190A      1.260542   191A      1.302330   192A      1.302330  
     193A      1.384850   194A      1.384850   195A      1.397938  
     196A      1.397938   197A      1.450948   198A      1.450948  
     199A      1.503087   200A      1.503087   201A      1.518218  
     202A      1.518218   203A      1.573930   204A      1.573930  
     205A      1.574076   206A      1.574076   207A      1.596189  
     208A      1.596189   209A      1.651960   210A      1.651960  
     211A      1.671303   212A      1.671303   213A      1.705086  
     214A      1.705086   215A      1.724278   216A      1.724278  
     217A      1.782451   218A      1.782451   219A      1.798869  
     220A      1.798869   221A      1.806851   222A      1.806851  
     223A      1.864749   224A      1.864749   225A      1.881287  
     226A      1.881287   227A      1.924193   228A      1.924193  
     229A      1.964796   230A      1.964796   231A      2.021827  
     232A      2.021827   233A      2.025246   234A      2.025246  
     235A      2.072790   236A      2.072790   237A      2.106859  
     238A      2.106859   239A      2.126560   240A      2.126560  
     241A      2.135767   242A      2.135767   243A      2.168479  
     244A      2.168479   245A      2.178627   246A      2.178627  
     247A      2.266892   248A      2.266892   249A      2.275766  
     250A      2.275766   251A      2.300732   252A      2.300732  
     253A      2.331879   254A      2.331879   255A      2.417565  
     256A      2.417565   257A      2.496746   258A      2.496746  
     259A      2.513826   260A      2.513826   261A      2.545178  
     262A      2.545178   263A      2.585552   264A      2.585552  
     265A      2.633567   266A      2.633567   267A      2.733893  
     268A      2.733893   269A      2.746827   270A      2.746827  
     271A      2.766895   272A      2.766895   273A      2.793956  
     274A      2.793956   275A      2.803244   276A      2.803244  
     277A      2.837460   278A      2.837460   279A      2.867022  
     280A      2.867022   281A      2.952550   282A      2.952550  
     283A      2.980660   284A      2.980660   285A      3.051005  
     286A      3.051005   287A      3.069715   288A      3.069715  
     289A      3.198971   290A      3.198971   291A      3.208602  
     292A      3.208602   293A      3.334625   294A      3.334625  
     295A      3.354373   296A      3.354373   297A      3.518353  
     298A      3.518353   299A      3.768094   300A      3.768094  
     301A      4.108834   302A      4.108834  

    Final Occupation by Irrep:
              A 
    DOCC [    36 ]

  @DF-RHF Final Energy:  -449.68743827038099

   => Energetics <=

    Nuclear Repulsion Energy =            363.0792385770964756
    One-Electron Energy =               -1327.6615886780216442
    Two-Electron Energy =                 514.8949118305441743
    Total Energy =                       -449.6874382703809943

Computation Completed


Properties will be evaluated at   0.000000,   0.000000,   0.000000 [a0]

Properties computed using the SCF density matrix

  Nuclear Dipole Moment: [e a0]
     X:   899.9127      Y:   397.9244      Z:   604.6526

  Electronic Dipole Moment: [e a0]
     X:  -899.9127      Y:  -397.9244      Z:  -604.6526

  Dipole Moment: [e a0]
     X:     0.0000      Y:    -0.0000      Z:    -0.0000     Total:     0.0000

  Dipole Moment: [D]
     X:     0.0000      Y:    -0.0000      Z:    -0.0000     Total:     0.0000


*** tstop() called on ds1 at Tue Sep 14 18:27:34 2021
Module time:
	user time   =      21.90 seconds =       0.36 minutes
	system time =       0.54 seconds =       0.01 minutes
	total time  =          5 seconds =       0.08 minutes
Total time:
	user time   =      21.90 seconds =       0.36 minutes
	system time =       0.54 seconds =       0.01 minutes
	total time  =          5 seconds =       0.08 minutes

  //>>>>>>>>>>>>>>>>>>>>>>>>>>>>>>>>>>>//
  //            Monomer A HF           //
  //<<<<<<<<<<<<<<<<<<<<<<<<<<<<<<<<<<<//


*** tstart() called on ds1
*** at Tue Sep 14 18:27:34 2021

   => Loading Basis Set <=

    Name: AUG-CC-PVDZ
    Role: ORBITAL
    Keyword: BASIS
    atoms 1-2, 10-11 entry N          line   218 file /theoryfs2/ds/csargent/miniconda3/envs/cle/share/psi4/basis/aug-cc-pvdz.gbs 
    atoms 3-6, 12-15 entry H          line    40 file /theoryfs2/ds/csargent/miniconda3/envs/cle/share/psi4/basis/aug-cc-pvdz.gbs 
    atoms 7-9, 16-18 entry C          line   182 file /theoryfs2/ds/csargent/miniconda3/envs/cle/share/psi4/basis/aug-cc-pvdz.gbs 


         ---------------------------------------------------------
                                   SCF
               by Justin Turney, Rob Parrish, Andy Simmonett
                          and Daniel G. A. Smith
                              RHF Reference
                        6 Threads,   6675 MiB Core
         ---------------------------------------------------------

  ==> Geometry <==

    Molecular point group: c1
    Full point group: C1

    Geometry (in Bohr), charge = 0, multiplicity = 1:

       Center              X                  Y                   Z               Mass       
    ------------   -----------------  -----------------  -----------------  -----------------
         N           -4.293096210000    -3.068374310000     5.305162310000    14.003074004430
         N           -2.158473710000    -2.926272960000     1.720374480000    14.003074004430
         H           -0.025455870000    -6.359035750000     2.220464520000     1.007825032230
         H           -2.685669680000    -6.532602410000     6.614459540000     1.007825032230
         H           -4.743884230000    -0.006090060000     2.756159680000     1.007825032230
         H           -1.410455400000    -2.247231470000     0.000000000000     1.007825032230
         C           -1.437379910000    -5.075048480000     2.940658910000    12.000000000000
         C           -2.769007820000    -5.146099160000     5.135228800000    12.000000000000
         C           -3.859550360000    -1.777281980000     3.210934110000    12.000000000000
      Gh(N)          29.290671780000    14.121829910000    11.490742040000    14.003074004430
      Gh(N)          27.156049280000    13.979728550000    15.075529880000    14.003074004430
      Gh(H)          25.023031440000    17.412491340000    14.575439840000     1.007825032230
      Gh(H)          27.683245250000    17.586058000000    10.181444820000     1.007825032230
      Gh(H)          29.741459800000    11.059545650000    14.039744680000     1.007825032230
      Gh(H)          26.408030970000    13.300687060000    16.795904350000     1.007825032230
      Gh(C)          26.434955480000    16.128504080000    13.855245440000    12.000000000000
      Gh(C)          27.766583390000    16.199554760000    11.660675550000    12.000000000000
      Gh(C)          28.857125930000    12.830737570000    13.584970240000    12.000000000000

  Running in c1 symmetry.

  Rotational constants: A =      0.02293  B =      0.00075  C =      0.00073 [cm^-1]
  Rotational constants: A =    687.51758  B =     22.53876  C =     22.01491 [MHz]
  Nuclear repulsion =  164.086695994184396

  Charge       = 0
  Multiplicity = 1
  Electrons    = 36
  Nalpha       = 18
  Nbeta        = 18

  ==> Algorithm <==

  SCF Algorithm Type is DF.
  DIIS enabled.
  MOM disabled.
  Fractional occupation disabled.
  Guess Type is SAD.
  Energy threshold   = 1.00e-10
  Density threshold  = 1.00e-10
  Integral threshold = 1.00e-12

  ==> Primary Basis <==

  Basis Set: AUG-CC-PVDZ
    Blend: AUG-CC-PVDZ
    Number of shells: 130
    Number of basis functions: 302
    Number of Cartesian functions: 322
    Spherical Harmonics?: true
    Max angular momentum: 2

   => Loading Basis Set <=

    Name: (AUG-CC-PVDZ AUX)
    Role: JKFIT
    Keyword: DF_BASIS_SCF
    atoms 1-2, 10-11 entry N          line   212 file /theoryfs2/ds/csargent/miniconda3/envs/cle/share/psi4/basis/aug-cc-pvdz-jkfit.gbs 
    atoms 3-6, 12-15 entry H          line    70 file /theoryfs2/ds/csargent/miniconda3/envs/cle/share/psi4/basis/aug-cc-pvdz-jkfit.gbs 
    atoms 7-9, 16-18 entry C          line   154 file /theoryfs2/ds/csargent/miniconda3/envs/cle/share/psi4/basis/aug-cc-pvdz-jkfit.gbs 

  ==> Integral Setup <==

  ==> DiskDFJK: Density-Fitted J/K Matrices <==

    J tasked:                  Yes
    K tasked:                  Yes
    wK tasked:                  No
    OpenMP threads:              6
    Integrals threads:           6
    Memory [MiB]:             5006
    Algorithm:                Core
    Integral Cache:           LOAD
    Schwarz Cutoff:          1E-12
    Fitting Condition:       1E-10

   => Auxiliary Basis Set <=

  Basis Set: (AUG-CC-PVDZ AUX)
    Blend: AUG-CC-PVDZ-JKFIT
    Number of shells: 376
    Number of basis functions: 1116
    Number of Cartesian functions: 1290
    Spherical Harmonics?: true
    Max angular momentum: 3

  Minimum eigenvalue in the overlap matrix is 2.1837062356E-05.
  Reciprocal condition number of the overlap matrix is 1.8394513594E-06.
    Using symmetric orthogonalization.

  ==> Pre-Iterations <==

  SCF Guess: Superposition of Atomic Densities via on-the-fly atomic UHF (no occupation information).

   -------------------------
    Irrep   Nso     Nmo    
   -------------------------
     A        302     302 
   -------------------------
    Total     302     302
   -------------------------

  ==> Iterations <==

                           Total Energy        Delta E     RMS |[F,P]|

   @DF-RHF iter SAD:  -224.55857169574961   -2.24559e+02   0.00000e+00 
   @DF-RHF iter   1:  -224.69806464881844   -1.39493e-01   1.63067e-03 DIIS
   @DF-RHF iter   2:  -224.80532026734087   -1.07256e-01   9.27384e-04 DIIS
   @DF-RHF iter   3:  -224.84168817129424   -3.63679e-02   1.74019e-04 DIIS
   @DF-RHF iter   4:  -224.84337342337020   -1.68525e-03   7.98972e-05 DIIS
   @DF-RHF iter   5:  -224.84367500408445   -3.01581e-04   1.26452e-05 DIIS
   @DF-RHF iter   6:  -224.84369234111750   -1.73370e-05   5.61871e-06 DIIS
   @DF-RHF iter   7:  -224.84369542918697   -3.08807e-06   2.19503e-06 DIIS
   @DF-RHF iter   8:  -224.84369616110521   -7.31918e-07   7.77587e-07 DIIS
   @DF-RHF iter   9:  -224.84369627189966   -1.10794e-07   1.87961e-07 DIIS
   @DF-RHF iter  10:  -224.84369627743547   -5.53581e-09   7.33125e-08 DIIS
   @DF-RHF iter  11:  -224.84369627826175   -8.26276e-10   3.26918e-08 DIIS
   @DF-RHF iter  12:  -224.84369627841363   -1.51886e-10   9.70884e-09 DIIS
   @DF-RHF iter  13:  -224.84369627842662   -1.29887e-11   3.58840e-09 DIIS
   @DF-RHF iter  14:  -224.84369627842835   -1.73372e-12   1.58275e-09 DIIS
   @DF-RHF iter  15:  -224.84369627842864   -2.84217e-13   5.27556e-10 DIIS
   @DF-RHF iter  16:  -224.84369627842887   -2.27374e-13   2.34517e-10 DIIS
   @DF-RHF iter  17:  -224.84369627842892   -5.68434e-14   4.71137e-11 DIIS
  Energy and wave function converged.


  ==> Post-Iterations <==

    Orbital Energies [Eh]
    ---------------------

    Doubly Occupied:                                                      

       1A    -15.637071     2A    -15.551216     3A    -11.300916  
       4A    -11.263160     5A    -11.245653     6A     -1.352867  
       7A     -1.169098     8A     -1.012098     9A     -0.824390  
      10A     -0.803731    11A     -0.760666    12A     -0.610096  
      13A     -0.603958    14A     -0.601922    15A     -0.570942  
      16A     -0.435483    17A     -0.400464    18A     -0.320685  

    Virtual:                                                              

      19A      0.022482    20A      0.025388    21A      0.040008  
      22A      0.041580    23A      0.043531    24A      0.049997  
      25A      0.061864    26A      0.067706    27A      0.076421  
      28A      0.086073    29A      0.089096    30A      0.097491  
      31A      0.101397    32A      0.120831    33A      0.124558  
      34A      0.124911    35A      0.125577    36A      0.126685  
      37A      0.127200    38A      0.133472    39A      0.133773  
      40A      0.134009    41A      0.138059    42A      0.140942  
      43A      0.156500    44A      0.156609    45A      0.158699  
      46A      0.171988    47A      0.178189    48A      0.187224  
      49A      0.192171    50A      0.207718    51A      0.209283  
      52A      0.211559    53A      0.212364    54A      0.220158  
      55A      0.220268    56A      0.222458    57A      0.232359  
      58A      0.233025    59A      0.241408    60A      0.261605  
      61A      0.267803    62A      0.272094    63A      0.277911  
      64A      0.299259    65A      0.301746    66A      0.306361  
      67A      0.314442    68A      0.319157    69A      0.338197  
      70A      0.360084    71A      0.361488    72A      0.370745  
      73A      0.375433    74A      0.379800    75A      0.388291  
      76A      0.393352    77A      0.397097    78A      0.417031  
      79A      0.427315    80A      0.429000    81A      0.435152  
      82A      0.440261    83A      0.448988    84A      0.452059  
      85A      0.452115    86A      0.466350    87A      0.468095  
      88A      0.480953    89A      0.481229    90A      0.486283  
      91A      0.488151    92A      0.517261    93A      0.520536  
      94A      0.535915    95A      0.538222    96A      0.543053  
      97A      0.551710    98A      0.555796    99A      0.556382  
     100A      0.568280   101A      0.576474   102A      0.579374  
     103A      0.587491   104A      0.594249   105A      0.598939  
     106A      0.606363   107A      0.612002   108A      0.616080  
     109A      0.618292   110A      0.636538   111A      0.639701  
     112A      0.652504   113A      0.669282   114A      0.671337  
     115A      0.677597   116A      0.678185   117A      0.683699  
     118A      0.683874   119A      0.711099   120A      0.714698  
     121A      0.725758   122A      0.736029   123A      0.741238  
     124A      0.756095   125A      0.762698   126A      0.767400  
     127A      0.790929   128A      0.793606   129A      0.798187  
     130A      0.809747   131A      0.810434   132A      0.812427  
     133A      0.823208   134A      0.836517   135A      0.859549  
     136A      0.860398   137A      0.871425   138A      0.885765  
     139A      0.886495   140A      0.889823   141A      0.909696  
     142A      0.919584   143A      0.926840   144A      0.954351  
     145A      0.968686   146A      0.976964   147A      0.991769  
     148A      0.998360   149A      1.010706   150A      1.015389  
     151A      1.017404   152A      1.030676   153A      1.058953  
     154A      1.077353   155A      1.078587   156A      1.084552  
     157A      1.103613   158A      1.115982   159A      1.126983  
     160A      1.132465   161A      1.140497   162A      1.149565  
     163A      1.167170   164A      1.170840   165A      1.174025  
     166A      1.197524   167A      1.210555   168A      1.217445  
     169A      1.260721   170A      1.277979   171A      1.290607  
     172A      1.296938   173A      1.302539   174A      1.312530  
     175A      1.318081   176A      1.347534   177A      1.384100  
     178A      1.385028   179A      1.398145   180A      1.451143  
     181A      1.494900   182A      1.503288   183A      1.515817  
     184A      1.518410   185A      1.541327   186A      1.574127  
     187A      1.574285   188A      1.596381   189A      1.652159  
     190A      1.660921   191A      1.671505   192A      1.705286  
     193A      1.724477   194A      1.782643   195A      1.799067  
     196A      1.807063   197A      1.864950   198A      1.881477  
     199A      1.924391   200A      1.964987   201A      2.022005  
     202A      2.025429   203A      2.039663   204A      2.072981  
     205A      2.101061   206A      2.107054   207A      2.119447  
     208A      2.126759   209A      2.131377   210A      2.135965  
     211A      2.149498   212A      2.168670   213A      2.178815  
     214A      2.185097   215A      2.229779   216A      2.252759  
     217A      2.267082   218A      2.275963   219A      2.300924  
     220A      2.308696   221A      2.327205   222A      2.332072  
     223A      2.376892   224A      2.405755   225A      2.413437  
     226A      2.417758   227A      2.455816   228A      2.470909  
     229A      2.494016   230A      2.496919   231A      2.514025  
     232A      2.525959   233A      2.545345   234A      2.545534  
     235A      2.576960   236A      2.585743   237A      2.599962  
     238A      2.633765   239A      2.696364   240A      2.734093  
     241A      2.747025   242A      2.767089   243A      2.790500  
     244A      2.794149   245A      2.803444   246A      2.828959  
     247A      2.837641   248A      2.867213   249A      2.895919  
     250A      2.933417   251A      2.949578   252A      2.952738  
     253A      2.980862   254A      3.043686   255A      3.051201  
     256A      3.069910   257A      3.076369   258A      3.132098  
     259A      3.159823   260A      3.183115   261A      3.199163  
     262A      3.208795   263A      3.213550   264A      3.334816  
     265A      3.341039   266A      3.354572   267A      3.354951  
     268A      3.363084   269A      3.458879   270A      3.494625  
     271A      3.518552   272A      3.569835   273A      3.609087  
     274A      3.707459   275A      3.726929   276A      3.768294  
     277A      3.778602   278A      3.798431   279A      3.858153  
     280A      3.870932   281A      4.004087   282A      4.109022  
     283A      4.212991   284A      4.636955   285A      4.639014  
     286A      4.696170   287A      4.772031   288A      4.880311  
     289A      5.021634   290A      5.254883   291A      5.373402  
     292A      5.495030   293A      5.610595   294A      5.716531  
     295A      5.884150   296A      6.089960   297A      6.198385  
     298A     18.255686   299A     18.590368   300A     19.300646  
     301A     25.312116   302A     25.453537  

    Final Occupation by Irrep:
              A 
    DOCC [    18 ]

  @DF-RHF Final Energy:  -224.84369627842892

   => Energetics <=

    Nuclear Repulsion Energy =            164.0866959941843959
    One-Electron Energy =                -628.9319563006824865
    Two-Electron Energy =                 240.0015640280691400
    Total Energy =                       -224.8436962784289221

Computation Completed


Properties will be evaluated at   0.000000,   0.000000,   0.000000 [a0]

Properties computed using the SCF density matrix

  Nuclear Dipole Moment: [e a0]
     X:  -102.4221      Y:  -129.0981      Z:   128.4908

  Electronic Dipole Moment: [e a0]
     X:   103.2259      Y:   129.2613      Z:  -129.8232

  Dipole Moment: [e a0]
     X:     0.8038      Y:     0.1633      Z:    -1.3324     Total:     1.5646

  Dipole Moment: [D]
     X:     2.0431      Y:     0.4150      Z:    -3.3867     Total:     3.9769


*** tstop() called on ds1 at Tue Sep 14 18:27:37 2021
Module time:
	user time   =      15.88 seconds =       0.26 minutes
	system time =       0.31 seconds =       0.01 minutes
	total time  =          3 seconds =       0.05 minutes
Total time:
	user time   =      37.92 seconds =       0.63 minutes
	system time =       0.86 seconds =       0.01 minutes
	total time  =          8 seconds =       0.13 minutes

  //>>>>>>>>>>>>>>>>>>>>>>>>>>>>>>>>>>>//
  //            Monomer B HF           //
  //<<<<<<<<<<<<<<<<<<<<<<<<<<<<<<<<<<<//


*** tstart() called on ds1
*** at Tue Sep 14 18:27:37 2021

   => Loading Basis Set <=

    Name: AUG-CC-PVDZ
    Role: ORBITAL
    Keyword: BASIS
    atoms 1-2, 10-11 entry N          line   218 file /theoryfs2/ds/csargent/miniconda3/envs/cle/share/psi4/basis/aug-cc-pvdz.gbs 
    atoms 3-6, 12-15 entry H          line    40 file /theoryfs2/ds/csargent/miniconda3/envs/cle/share/psi4/basis/aug-cc-pvdz.gbs 
    atoms 7-9, 16-18 entry C          line   182 file /theoryfs2/ds/csargent/miniconda3/envs/cle/share/psi4/basis/aug-cc-pvdz.gbs 


         ---------------------------------------------------------
                                   SCF
               by Justin Turney, Rob Parrish, Andy Simmonett
                          and Daniel G. A. Smith
                              RHF Reference
                        6 Threads,   6675 MiB Core
         ---------------------------------------------------------

  ==> Geometry <==

    Molecular point group: c1
    Full point group: C1

    Geometry (in Bohr), charge = 0, multiplicity = 1:

       Center              X                  Y                   Z               Mass       
    ------------   -----------------  -----------------  -----------------  -----------------
      Gh(N)          -4.293096210000    -3.068374310000     5.305162310000    14.003074004430
      Gh(N)          -2.158473710000    -2.926272960000     1.720374480000    14.003074004430
      Gh(H)          -0.025455870000    -6.359035750000     2.220464520000     1.007825032230
      Gh(H)          -2.685669680000    -6.532602410000     6.614459540000     1.007825032230
      Gh(H)          -4.743884230000    -0.006090060000     2.756159680000     1.007825032230
      Gh(H)          -1.410455400000    -2.247231470000     0.000000000000     1.007825032230
      Gh(C)          -1.437379910000    -5.075048480000     2.940658910000    12.000000000000
      Gh(C)          -2.769007820000    -5.146099160000     5.135228800000    12.000000000000
      Gh(C)          -3.859550360000    -1.777281980000     3.210934110000    12.000000000000
         N           29.290671780000    14.121829910000    11.490742040000    14.003074004430
         N           27.156049280000    13.979728550000    15.075529880000    14.003074004430
         H           25.023031440000    17.412491340000    14.575439840000     1.007825032230
         H           27.683245250000    17.586058000000    10.181444820000     1.007825032230
         H           29.741459800000    11.059545650000    14.039744680000     1.007825032230
         H           26.408030970000    13.300687060000    16.795904350000     1.007825032230
         C           26.434955480000    16.128504080000    13.855245440000    12.000000000000
         C           27.766583390000    16.199554760000    11.660675550000    12.000000000000
         C           28.857125930000    12.830737570000    13.584970240000    12.000000000000

  Running in c1 symmetry.

  Rotational constants: A =      0.02293  B =      0.00075  C =      0.00073 [cm^-1]
  Rotational constants: A =    687.51758  B =     22.53876  C =     22.01491 [MHz]
  Nuclear repulsion =  164.086695776030382

  Charge       = 0
  Multiplicity = 1
  Electrons    = 36
  Nalpha       = 18
  Nbeta        = 18

  ==> Algorithm <==

  SCF Algorithm Type is DF.
  DIIS enabled.
  MOM disabled.
  Fractional occupation disabled.
  Guess Type is SAD.
  Energy threshold   = 1.00e-10
  Density threshold  = 1.00e-10
  Integral threshold = 1.00e-12

  ==> Primary Basis <==

  Basis Set: AUG-CC-PVDZ
    Blend: AUG-CC-PVDZ
    Number of shells: 130
    Number of basis functions: 302
    Number of Cartesian functions: 322
    Spherical Harmonics?: true
    Max angular momentum: 2

   => Loading Basis Set <=

    Name: (AUG-CC-PVDZ AUX)
    Role: JKFIT
    Keyword: DF_BASIS_SCF
    atoms 1-2, 10-11 entry N          line   212 file /theoryfs2/ds/csargent/miniconda3/envs/cle/share/psi4/basis/aug-cc-pvdz-jkfit.gbs 
    atoms 3-6, 12-15 entry H          line    70 file /theoryfs2/ds/csargent/miniconda3/envs/cle/share/psi4/basis/aug-cc-pvdz-jkfit.gbs 
    atoms 7-9, 16-18 entry C          line   154 file /theoryfs2/ds/csargent/miniconda3/envs/cle/share/psi4/basis/aug-cc-pvdz-jkfit.gbs 

  ==> Integral Setup <==

  ==> DiskDFJK: Density-Fitted J/K Matrices <==

    J tasked:                  Yes
    K tasked:                  Yes
    wK tasked:                  No
    OpenMP threads:              6
    Integrals threads:           6
    Memory [MiB]:             5006
    Algorithm:                Core
    Integral Cache:           LOAD
    Schwarz Cutoff:          1E-12
    Fitting Condition:       1E-10

   => Auxiliary Basis Set <=

  Basis Set: (AUG-CC-PVDZ AUX)
    Blend: AUG-CC-PVDZ-JKFIT
    Number of shells: 376
    Number of basis functions: 1116
    Number of Cartesian functions: 1290
    Spherical Harmonics?: true
    Max angular momentum: 3

  Minimum eigenvalue in the overlap matrix is 2.1837062356E-05.
  Reciprocal condition number of the overlap matrix is 1.8394513594E-06.
    Using symmetric orthogonalization.

  ==> Pre-Iterations <==

  SCF Guess: Superposition of Atomic Densities via on-the-fly atomic UHF (no occupation information).

   -------------------------
    Irrep   Nso     Nmo    
   -------------------------
     A        302     302 
   -------------------------
    Total     302     302
   -------------------------

  ==> Iterations <==

                           Total Energy        Delta E     RMS |[F,P]|

   @DF-RHF iter SAD:  -224.55857167510982   -2.24559e+02   0.00000e+00 
   @DF-RHF iter   1:  -224.69806465014665   -1.39493e-01   1.63067e-03 DIIS
   @DF-RHF iter   2:  -224.80532026790115   -1.07256e-01   9.27384e-04 DIIS
   @DF-RHF iter   3:  -224.84168817172758   -3.63679e-02   1.74019e-04 DIIS
   @DF-RHF iter   4:  -224.84337342382418   -1.68525e-03   7.98972e-05 DIIS
   @DF-RHF iter   5:  -224.84367500454169   -3.01581e-04   1.26452e-05 DIIS
   @DF-RHF iter   6:  -224.84369234157504   -1.73370e-05   5.61871e-06 DIIS
   @DF-RHF iter   7:  -224.84369542964498   -3.08807e-06   2.19503e-06 DIIS
   @DF-RHF iter   8:  -224.84369616156346   -7.31918e-07   7.77587e-07 DIIS
   @DF-RHF iter   9:  -224.84369627235651   -1.10793e-07   1.87961e-07 DIIS
   @DF-RHF iter  10:  -224.84369627789278   -5.53626e-09   7.33125e-08 DIIS
   @DF-RHF iter  11:  -224.84369627871894   -8.26162e-10   3.26918e-08 DIIS
   @DF-RHF iter  12:  -224.84369627887102   -1.52085e-10   9.70884e-09 DIIS
   @DF-RHF iter  13:  -224.84369627888458   -1.35572e-11   3.58840e-09 DIIS
   @DF-RHF iter  14:  -224.84369627888597   -1.39266e-12   1.58275e-09 DIIS
   @DF-RHF iter  15:  -224.84369627888617   -1.98952e-13   5.27556e-10 DIIS
   @DF-RHF iter  16:  -224.84369627888651   -3.41061e-13   2.34517e-10 DIIS
   @DF-RHF iter  17:  -224.84369627888648    2.84217e-14   4.71139e-11 DIIS
  Energy and wave function converged.


  ==> Post-Iterations <==

    Orbital Energies [Eh]
    ---------------------

    Doubly Occupied:                                                      

       1A    -15.637071     2A    -15.551216     3A    -11.300916  
       4A    -11.263160     5A    -11.245653     6A     -1.352867  
       7A     -1.169098     8A     -1.012098     9A     -0.824390  
      10A     -0.803731    11A     -0.760666    12A     -0.610096  
      13A     -0.603958    14A     -0.601922    15A     -0.570942  
      16A     -0.435483    17A     -0.400464    18A     -0.320685  

    Virtual:                                                              

      19A      0.022482    20A      0.025388    21A      0.040008  
      22A      0.041580    23A      0.043531    24A      0.049997  
      25A      0.061864    26A      0.067706    27A      0.076421  
      28A      0.086073    29A      0.089096    30A      0.097491  
      31A      0.101397    32A      0.120831    33A      0.124558  
      34A      0.124911    35A      0.125577    36A      0.126685  
      37A      0.127200    38A      0.133472    39A      0.133773  
      40A      0.134009    41A      0.138059    42A      0.140942  
      43A      0.156500    44A      0.156609    45A      0.158699  
      46A      0.171988    47A      0.178189    48A      0.187224  
      49A      0.192171    50A      0.207718    51A      0.209283  
      52A      0.211559    53A      0.212364    54A      0.220158  
      55A      0.220268    56A      0.222458    57A      0.232359  
      58A      0.233025    59A      0.241408    60A      0.261605  
      61A      0.267803    62A      0.272094    63A      0.277911  
      64A      0.299259    65A      0.301746    66A      0.306361  
      67A      0.314442    68A      0.319157    69A      0.338197  
      70A      0.360084    71A      0.361488    72A      0.370745  
      73A      0.375433    74A      0.379800    75A      0.388291  
      76A      0.393352    77A      0.397097    78A      0.417031  
      79A      0.427315    80A      0.429000    81A      0.435152  
      82A      0.440261    83A      0.448988    84A      0.452059  
      85A      0.452115    86A      0.466350    87A      0.468095  
      88A      0.480953    89A      0.481229    90A      0.486283  
      91A      0.488151    92A      0.517261    93A      0.520536  
      94A      0.535915    95A      0.538222    96A      0.543053  
      97A      0.551710    98A      0.555796    99A      0.556382  
     100A      0.568280   101A      0.576474   102A      0.579374  
     103A      0.587491   104A      0.594249   105A      0.598939  
     106A      0.606363   107A      0.612002   108A      0.616080  
     109A      0.618292   110A      0.636538   111A      0.639701  
     112A      0.652504   113A      0.669282   114A      0.671337  
     115A      0.677597   116A      0.678185   117A      0.683699  
     118A      0.683874   119A      0.711099   120A      0.714698  
     121A      0.725758   122A      0.736029   123A      0.741238  
     124A      0.756095   125A      0.762698   126A      0.767400  
     127A      0.790929   128A      0.793606   129A      0.798187  
     130A      0.809747   131A      0.810434   132A      0.812427  
     133A      0.823208   134A      0.836517   135A      0.859549  
     136A      0.860398   137A      0.871425   138A      0.885765  
     139A      0.886495   140A      0.889823   141A      0.909696  
     142A      0.919584   143A      0.926840   144A      0.954351  
     145A      0.968686   146A      0.976964   147A      0.991769  
     148A      0.998360   149A      1.010706   150A      1.015389  
     151A      1.017404   152A      1.030676   153A      1.058953  
     154A      1.077353   155A      1.078587   156A      1.084552  
     157A      1.103613   158A      1.115982   159A      1.126983  
     160A      1.132465   161A      1.140497   162A      1.149565  
     163A      1.167170   164A      1.170840   165A      1.174025  
     166A      1.197524   167A      1.210555   168A      1.217445  
     169A      1.260721   170A      1.277979   171A      1.290607  
     172A      1.296938   173A      1.302539   174A      1.312530  
     175A      1.318081   176A      1.347534   177A      1.384100  
     178A      1.385028   179A      1.398145   180A      1.451143  
     181A      1.494900   182A      1.503288   183A      1.515817  
     184A      1.518410   185A      1.541327   186A      1.574127  
     187A      1.574285   188A      1.596381   189A      1.652159  
     190A      1.660921   191A      1.671505   192A      1.705286  
     193A      1.724477   194A      1.782643   195A      1.799067  
     196A      1.807063   197A      1.864950   198A      1.881477  
     199A      1.924391   200A      1.964987   201A      2.022005  
     202A      2.025429   203A      2.039663   204A      2.072981  
     205A      2.101061   206A      2.107054   207A      2.119447  
     208A      2.126759   209A      2.131377   210A      2.135965  
     211A      2.149498   212A      2.168670   213A      2.178815  
     214A      2.185097   215A      2.229779   216A      2.252759  
     217A      2.267082   218A      2.275963   219A      2.300924  
     220A      2.308696   221A      2.327205   222A      2.332072  
     223A      2.376892   224A      2.405755   225A      2.413437  
     226A      2.417758   227A      2.455816   228A      2.470909  
     229A      2.494016   230A      2.496919   231A      2.514025  
     232A      2.525959   233A      2.545345   234A      2.545534  
     235A      2.576960   236A      2.585743   237A      2.599962  
     238A      2.633765   239A      2.696364   240A      2.734093  
     241A      2.747025   242A      2.767089   243A      2.790500  
     244A      2.794149   245A      2.803444   246A      2.828959  
     247A      2.837641   248A      2.867213   249A      2.895919  
     250A      2.933417   251A      2.949578   252A      2.952738  
     253A      2.980862   254A      3.043686   255A      3.051201  
     256A      3.069910   257A      3.076369   258A      3.132098  
     259A      3.159823   260A      3.183115   261A      3.199163  
     262A      3.208795   263A      3.213550   264A      3.334816  
     265A      3.341039   266A      3.354572   267A      3.354951  
     268A      3.363084   269A      3.458879   270A      3.494625  
     271A      3.518552   272A      3.569835   273A      3.609087  
     274A      3.707459   275A      3.726929   276A      3.768294  
     277A      3.778602   278A      3.798431   279A      3.858153  
     280A      3.870932   281A      4.004087   282A      4.109022  
     283A      4.212991   284A      4.636955   285A      4.639014  
     286A      4.696170   287A      4.772031   288A      4.880311  
     289A      5.021634   290A      5.254883   291A      5.373402  
     292A      5.495030   293A      5.610595   294A      5.716531  
     295A      5.884150   296A      6.089960   297A      6.198385  
     298A     18.255686   299A     18.590368   300A     19.300646  
     301A     25.312116   302A     25.453537  

    Final Occupation by Irrep:
              A 
    DOCC [    18 ]

  @DF-RHF Final Energy:  -224.84369627888648

   => Energetics <=

    Nuclear Repulsion Energy =            164.0866957760303819
    One-Electron Energy =                -628.9319558688388270
    Two-Electron Energy =                 240.0015638139219334
    Total Energy =                       -224.8436962788864832

Computation Completed


Properties will be evaluated at   0.000000,   0.000000,   0.000000 [a0]

Properties computed using the SCF density matrix

  Nuclear Dipole Moment: [e a0]
     X:  1002.3348      Y:   527.0225      Z:   476.1618

  Electronic Dipole Moment: [e a0]
     X: -1003.1386      Y:  -527.1857      Z:  -474.8294

  Dipole Moment: [e a0]
     X:    -0.8038      Y:    -0.1633      Z:     1.3324     Total:     1.5646

  Dipole Moment: [D]
     X:    -2.0431      Y:    -0.4150      Z:     3.3867     Total:     3.9769


*** tstop() called on ds1 at Tue Sep 14 18:27:41 2021
Module time:
	user time   =      15.77 seconds =       0.26 minutes
	system time =       0.32 seconds =       0.01 minutes
	total time  =          4 seconds =       0.07 minutes
Total time:
	user time   =      53.89 seconds =       0.90 minutes
	system time =       1.19 seconds =       0.02 minutes
	total time  =         12 seconds =       0.20 minutes
  Constructing Basis Sets for SAPT...

   => Loading Basis Set <=

    Name: (AUG-CC-PVDZ AUX)
    Role: RIFIT
    Keyword: DF_BASIS_SAPT
    atoms 1-2, 10-11 entry N          line   158 file /theoryfs2/ds/csargent/miniconda3/envs/cle/share/psi4/basis/aug-cc-pvdz-ri.gbs 
    atoms 3-6, 12-15 entry H          line    30 file /theoryfs2/ds/csargent/miniconda3/envs/cle/share/psi4/basis/aug-cc-pvdz-ri.gbs 
    atoms 7-9, 16-18 entry C          line   112 file /theoryfs2/ds/csargent/miniconda3/envs/cle/share/psi4/basis/aug-cc-pvdz-ri.gbs 


  //>>>>>>>>>>>>>>>>>>>>>>>>>>>>>>>>>>>//
  //               SAPT0               //
  //<<<<<<<<<<<<<<<<<<<<<<<<<<<<<<<<<<<//


*** tstart() called on ds1
*** at Tue Sep 14 18:27:41 2021

        SAPT0  
    Ed Hohenstein
     6 June 2009

      Orbital Information
  --------------------------
    NSO        =       302
    NMO        =       302
    NRI        =       904
    NOCC A     =        18
    NOCC B     =        18
    FOCC A     =         5
    FOCC B     =         5
    NVIR A     =       284
    NVIR B     =       284

    Elst10,r            =    -0.000045658079 [Eh]
    Exch10              =     0.000000000000 [Eh]
    Exch10 (S^2)        =     0.000000000000 [Eh]

    Iter     Energy [mEh]          dE [mEh]         Residual      Time [s]
       1      -0.00002454       0.000024544       0.055500514             0
       2      -0.00002253      -0.000002010       0.014231736             0
       3      -0.00002475       0.000002212       0.005484676             0
       4      -0.00002514       0.000000393       0.001506063             0
       5      -0.00002508      -0.000000058       0.000610265             0
       6      -0.00002506      -0.000000025       0.000205565             0
       7      -0.00002506       0.000000005       0.000082711             1
       8      -0.00002506       0.000000003       0.000027053             1
       9      -0.00002506      -0.000000001       0.000011946             1
      10      -0.00002506      -0.000000000       0.000002551             1
      11      -0.00002506       0.000000000       0.000000861             1

    CHF Iterations converged


    Iter     Energy [mEh]          dE [mEh]         Residual      Time [s]
       1      -0.00002454       0.000024544       0.055500514             0
       2      -0.00002253      -0.000002010       0.014231737             0
       3      -0.00002475       0.000002212       0.005484676             0
       4      -0.00002514       0.000000393       0.001506063             1
       5      -0.00002508      -0.000000058       0.000610265             1
       6      -0.00002506      -0.000000025       0.000205565             1
       7      -0.00002506       0.000000005       0.000082711             1
       8      -0.00002506       0.000000003       0.000027053             1
       9      -0.00002506      -0.000000001       0.000011946             1
      10      -0.00002506      -0.000000000       0.000002551             1
      11      -0.00002506       0.000000000       0.000000861             1

    CHF Iterations converged

    Ind20,r (A<-B)      =    -0.000000025063 [Eh]
    Ind20,r (B<-A)      =    -0.000000025063 [Eh]
    Ind20,r             =    -0.000000050125 [Eh]
    Exch-Ind20,r (A<-B) =     0.000000000000 [Eh]
    Exch-Ind20,r (B<-A) =     0.000000000000 [Eh]
    Exch-Ind20,r        =     0.000000000000 [Eh]
    Disp20              =    -0.000000394444 [Eh]
    Disp20 (SS)         =    -0.000000197222 [Eh]
    Disp20 (OS)         =    -0.000000197222 [Eh]
    Exch-Disp20         =     0.000000000000 [Eh]
    Exch-Disp20 (SS)    =     0.000000000000 [Eh]
    Exch-Disp20 (OS)    =     0.000000000000 [Eh]

    SAPT Results 
  --------------------------------------------------------------------------------------------------------
    Electrostatics                 -0.04565808 [mEh]      -0.02865088 [kcal/mol]      -0.11987527 [kJ/mol]
      Elst10,r                     -0.04565808 [mEh]      -0.02865088 [kcal/mol]      -0.11987527 [kJ/mol]

    Exchange                        0.00000000 [mEh]       0.00000000 [kcal/mol]       0.00000000 [kJ/mol]
      Exch10                        0.00000000 [mEh]       0.00000000 [kcal/mol]       0.00000000 [kJ/mol]
      Exch10(S^2)                   0.00000000 [mEh]       0.00000000 [kcal/mol]       0.00000000 [kJ/mol]

    Induction                      -0.00005499 [mEh]      -0.00003450 [kcal/mol]      -0.00014437 [kJ/mol]
      Ind20,r                      -0.00005013 [mEh]      -0.00003145 [kcal/mol]      -0.00013160 [kJ/mol]
      Exch-Ind20,r                  0.00000000 [mEh]       0.00000000 [kcal/mol]       0.00000000 [kJ/mol]
      delta HF,r (2)               -0.00000486 [mEh]      -0.00000305 [kcal/mol]      -0.00001276 [kJ/mol]

    Dispersion                     -0.00039444 [mEh]      -0.00024752 [kcal/mol]      -0.00103561 [kJ/mol]
      Disp20                       -0.00039444 [mEh]      -0.00024752 [kcal/mol]      -0.00103561 [kJ/mol]
      Exch-Disp20                   0.00000000 [mEh]       0.00000000 [kcal/mol]       0.00000000 [kJ/mol]
      Disp20 (SS)                  -0.00019722 [mEh]      -0.00012376 [kcal/mol]      -0.00051781 [kJ/mol]
      Disp20 (OS)                  -0.00019722 [mEh]      -0.00012376 [kcal/mol]      -0.00051781 [kJ/mol]
      Exch-Disp20 (SS)              0.00000000 [mEh]       0.00000000 [kcal/mol]       0.00000000 [kJ/mol]
      Exch-Disp20 (OS)              0.00000000 [mEh]       0.00000000 [kcal/mol]       0.00000000 [kJ/mol]

  Total HF                         -0.04571307 [mEh]      -0.02868538 [kcal/mol]      -0.12001964 [kJ/mol]
  Total SAPT0                      -0.04610751 [mEh]      -0.02893290 [kcal/mol]      -0.12105525 [kJ/mol]

  Special recipe for scaled SAPT0 (see Manual):
    Electrostatics sSAPT0          -0.04565808 [mEh]      -0.02865088 [kcal/mol]      -0.11987527 [kJ/mol]
    Exchange sSAPT0                 0.00000000 [mEh]       0.00000000 [kcal/mol]       0.00000000 [kJ/mol]
    Induction sSAPT0               -0.00005499 [mEh]      -0.00003450 [kcal/mol]      -0.00014437 [kJ/mol]
    Dispersion sSAPT0              -0.00039444 [mEh]      -0.00024752 [kcal/mol]      -0.00103561 [kJ/mol]
  Total sSAPT0                     -0.04610751 [mEh]      -0.02893290 [kcal/mol]      -0.12105525 [kJ/mol]
  --------------------------------------------------------------------------------------------------------

*** tstop() called on ds1 at Tue Sep 14 18:27:50 2021
Module time:
	user time   =      44.20 seconds =       0.74 minutes
	system time =       3.74 seconds =       0.06 minutes
	total time  =          9 seconds =       0.15 minutes
Total time:
	user time   =      99.12 seconds =       1.65 minutes
	system time =       4.96 seconds =       0.08 minutes
	total time  =         21 seconds =       0.35 minutes


Warning! sapt0 does not have an associated derived wavefunction.The returned wavefunction is the dimer SCF wavefunction.


    Psi4 stopped on: Tuesday, 14 September 2021 06:27PM
    Psi4 wall time for execution: 0:00:21.25

*** Psi4 exiting successfully. Buy a developer a beer!
