
    -----------------------------------------------------------------------
          Psi4: An Open-Source Ab Initio Electronic Structure Package
                               Psi4 1.4rc3 

                         Git: Rev {HEAD} 080dba6 


    D. G. A. Smith, L. A. Burns, A. C. Simmonett, R. M. Parrish,
    M. C. Schieber, R. Galvelis, P. Kraus, H. Kruse, R. Di Remigio,
    A. Alenaizan, A. M. James, S. Lehtola, J. P. Misiewicz, M. Scheurer,
    R. A. Shaw, J. B. Schriber, Y. Xie, Z. L. Glick, D. A. Sirianni,
    J. S. O'Brien, J. M. Waldrop, A. Kumar, E. G. Hohenstein,
    B. P. Pritchard, B. R. Brooks, H. F. Schaefer III, A. Yu. Sokolov,
    K. Patkowski, A. E. DePrince III, U. Bozkaya, R. A. King,
    F. A. Evangelista, J. M. Turney, T. D. Crawford, C. D. Sherrill,
    J. Chem. Phys. 152(18) 184108 (2020). https://doi.org/10.1063/5.0006002

                            Additional Code Authors
    E. T. Seidl, C. L. Janssen, E. F. Valeev, M. L. Leininger,
    J. F. Gonthier, R. M. Richard, H. R. McAlexander, M. Saitow, X. Wang,
    P. Verma, and M. H. Lechner

             Previous Authors, Complete List of Code Contributors,
                       and Citations for Specific Modules
    https://github.com/psi4/psi4/blob/master/codemeta.json
    https://github.com/psi4/psi4/graphs/contributors
    http://psicode.org/psi4manual/master/introduction.html#citing-psifour

    -----------------------------------------------------------------------


    Psi4 started on: Tuesday, 14 September 2021 06:01PM

    Process ID: 4845
    Host:       ds1
    PSIDATADIR: /theoryfs2/ds/csargent/miniconda3/envs/cle/share/psi4
    Memory:     500.0 MiB
    Threads:    6
    
  ==> Input File <==

--------------------------------------------------------------------------
# PSI4 file produced by CrystaLattE

# Generated from:               imidazole.xyz
# Psithon input for N-mer:      2mer-0+43
# Number of atoms per monomer:  [9, 9]
# Number of replicas:           1
# COM priority:                 3.425343089679e-04
# Minimum COM separations:      7.563 
# Separation priority:          6.052052245022e-04
# Minimum monomer separations:  6.256 
# Cutoff priority:              5.119217218936e-05
# Nuclear repulsion energy:     417.67809069609194

memory 7 GB

molecule Dimer_0_43 {
  N           -4.29309621      -3.06837431       5.30516231 
  N           -2.15847371      -2.92627296       1.72037448 
  H           -0.02545587      -6.35903575       2.22046452 
  H           -2.68566968      -6.53260241       6.61445954 
  H           -4.74388423      -0.00609006       2.75615968 
  H           -1.41045540      -2.24723147       0.00000000 
  C           -1.43737991      -5.07504848       2.94065891 
  C           -2.76900782      -5.14609916       5.13522880 
  C           -3.85955036      -1.77728198       3.21093411 
--
  N           -4.72980061     -16.32846099      -4.69340168 
  N           -6.86442311     -16.47056235      -1.10861384 
  H           -8.99744096     -13.03779955      -1.60870389 
  H           -6.33722715     -12.86423289      -6.00269891 
  H           -4.27901260     -19.39074524      -2.14439904 
  H           -7.61244142     -17.14960383       0.61176063 
  C           -7.58551691     -14.32178682      -2.32889828 
  C           -6.25388901     -14.25073614      -4.52346817 
  C           -5.16334647     -17.61955332      -2.59917348 
units = au
no_com
no_reorient
}

set {
  e_convergence 10
  d_convergence 10
  scf_type df
  mp2_type df
  cc_type df
  freeze_core true
}

energy('sapt0/aug-cc-pvdz')

--------------------------------------------------------------------------

  Memory set to   6.519 GiB by Python driver.

Scratch directory: /scratch/csargent/psi4.31446.79897/

Scratch directory: /scratch/csargent/psi4.31446.79897/

  //>>>>>>>>>>>>>>>>>>>>>>>>>>>>>>>>>>>//
  //              Dimer HF             //
  //<<<<<<<<<<<<<<<<<<<<<<<<<<<<<<<<<<<//


*** tstart() called on ds1
*** at Tue Sep 14 18:01:19 2021

   => Loading Basis Set <=

    Name: AUG-CC-PVDZ
    Role: ORBITAL
    Keyword: BASIS
    atoms 1-2, 10-11 entry N          line   218 file /theoryfs2/ds/csargent/miniconda3/envs/cle/share/psi4/basis/aug-cc-pvdz.gbs 
    atoms 3-6, 12-15 entry H          line    40 file /theoryfs2/ds/csargent/miniconda3/envs/cle/share/psi4/basis/aug-cc-pvdz.gbs 
    atoms 7-9, 16-18 entry C          line   182 file /theoryfs2/ds/csargent/miniconda3/envs/cle/share/psi4/basis/aug-cc-pvdz.gbs 


         ---------------------------------------------------------
                                   SCF
               by Justin Turney, Rob Parrish, Andy Simmonett
                          and Daniel G. A. Smith
                              RHF Reference
                        6 Threads,   6675 MiB Core
         ---------------------------------------------------------

  ==> Geometry <==

    Molecular point group: c1
    Full point group: C1

    Geometry (in Bohr), charge = 0, multiplicity = 1:

       Center              X                  Y                   Z               Mass       
    ------------   -----------------  -----------------  -----------------  -----------------
         N           -4.293096210000    -3.068374310000     5.305162310000    14.003074004430
         N           -2.158473710000    -2.926272960000     1.720374480000    14.003074004430
         H           -0.025455870000    -6.359035750000     2.220464520000     1.007825032230
         H           -2.685669680000    -6.532602410000     6.614459540000     1.007825032230
         H           -4.743884230000    -0.006090060000     2.756159680000     1.007825032230
         H           -1.410455400000    -2.247231470000     0.000000000000     1.007825032230
         C           -1.437379910000    -5.075048480000     2.940658910000    12.000000000000
         C           -2.769007820000    -5.146099160000     5.135228800000    12.000000000000
         C           -3.859550360000    -1.777281980000     3.210934110000    12.000000000000
         N           -4.729800610000   -16.328460990000    -4.693401680000    14.003074004430
         N           -6.864423110000   -16.470562350000    -1.108613840000    14.003074004430
         H           -8.997440960000   -13.037799550000    -1.608703890000     1.007825032230
         H           -6.337227150000   -12.864232890000    -6.002698910000     1.007825032230
         H           -4.279012600000   -19.390745240000    -2.144399040000     1.007825032230
         H           -7.612441420000   -17.149603830000     0.611760630000     1.007825032230
         C           -7.585516910000   -14.321786820000    -2.328898280000    12.000000000000
         C           -6.253889010000   -14.250736140000    -4.523468170000    12.000000000000
         C           -5.163346470000   -17.619553320000    -2.599173480000    12.000000000000

  Running in c1 symmetry.

  Rotational constants: A =      0.03104  B =      0.00279  C =      0.00261 [cm^-1]
  Rotational constants: A =    930.41502  B =     83.65062  C =     78.34673 [MHz]
  Nuclear repulsion =  417.678090727106394

  Charge       = 0
  Multiplicity = 1
  Electrons    = 72
  Nalpha       = 36
  Nbeta        = 36

  ==> Algorithm <==

  SCF Algorithm Type is DF.
  DIIS enabled.
  MOM disabled.
  Fractional occupation disabled.
  Guess Type is SAD.
  Energy threshold   = 1.00e-10
  Density threshold  = 1.00e-10
  Integral threshold = 1.00e-12

  ==> Primary Basis <==

  Basis Set: AUG-CC-PVDZ
    Blend: AUG-CC-PVDZ
    Number of shells: 130
    Number of basis functions: 302
    Number of Cartesian functions: 322
    Spherical Harmonics?: true
    Max angular momentum: 2

   => Loading Basis Set <=

    Name: (AUG-CC-PVDZ AUX)
    Role: JKFIT
    Keyword: DF_BASIS_SCF
    atoms 1-2, 10-11 entry N          line   212 file /theoryfs2/ds/csargent/miniconda3/envs/cle/share/psi4/basis/aug-cc-pvdz-jkfit.gbs 
    atoms 3-6, 12-15 entry H          line    70 file /theoryfs2/ds/csargent/miniconda3/envs/cle/share/psi4/basis/aug-cc-pvdz-jkfit.gbs 
    atoms 7-9, 16-18 entry C          line   154 file /theoryfs2/ds/csargent/miniconda3/envs/cle/share/psi4/basis/aug-cc-pvdz-jkfit.gbs 

  ==> Integral Setup <==

  ==> DiskDFJK: Density-Fitted J/K Matrices <==

    J tasked:                  Yes
    K tasked:                  Yes
    wK tasked:                  No
    OpenMP threads:              6
    Integrals threads:           6
    Memory [MiB]:             5006
    Algorithm:                Core
    Integral Cache:           SAVE
    Schwarz Cutoff:          1E-12
    Fitting Condition:       1E-10

   => Auxiliary Basis Set <=

  Basis Set: (AUG-CC-PVDZ AUX)
    Blend: AUG-CC-PVDZ-JKFIT
    Number of shells: 376
    Number of basis functions: 1116
    Number of Cartesian functions: 1290
    Spherical Harmonics?: true
    Max angular momentum: 3

  Minimum eigenvalue in the overlap matrix is 1.7941151130E-05.
  Reciprocal condition number of the overlap matrix is 1.4972493387E-06.
    Using symmetric orthogonalization.

  ==> Pre-Iterations <==

  SCF Guess: Superposition of Atomic Densities via on-the-fly atomic UHF (no occupation information).

   -------------------------
    Irrep   Nso     Nmo    
   -------------------------
     A        302     302 
   -------------------------
    Total     302     302
   -------------------------

  ==> Iterations <==

                           Total Energy        Delta E     RMS |[F,P]|

   @DF-RHF iter SAD:  -449.11734669125389   -4.49117e+02   0.00000e+00 
   @DF-RHF iter   1:  -449.39800035135892   -2.80654e-01   2.30160e-03 DIIS
   @DF-RHF iter   2:  -449.61247706297542   -2.14477e-01   1.30202e-03 DIIS
   @DF-RHF iter   3:  -449.68407633638748   -7.15993e-02   2.43120e-04 DIIS
   @DF-RHF iter   4:  -449.68739671982087   -3.32038e-03   1.11042e-04 DIIS
   @DF-RHF iter   5:  -449.68797911140535   -5.82392e-04   1.79098e-05 DIIS
   @DF-RHF iter   6:  -449.68801370616495   -3.45948e-05   7.93195e-06 DIIS
   @DF-RHF iter   7:  -449.68801990117385   -6.19501e-06   3.11533e-06 DIIS
   @DF-RHF iter   8:  -449.68802138636136   -1.48519e-06   1.10528e-06 DIIS
   @DF-RHF iter   9:  -449.68802161270139   -2.26340e-07   2.71935e-07 DIIS
   @DF-RHF iter  10:  -449.68802162401323   -1.13118e-08   1.09233e-07 DIIS
   @DF-RHF iter  11:  -449.68802162580062   -1.78738e-09   4.62666e-08 DIIS
   @DF-RHF iter  12:  -449.68802162611814   -3.17527e-10   1.40480e-08 DIIS
   @DF-RHF iter  13:  -449.68802162614713   -2.89901e-11   5.06414e-09 DIIS
   @DF-RHF iter  14:  -449.68802162614890   -1.76215e-12   2.28922e-09 DIIS
   @DF-RHF iter  15:  -449.68802162614963   -7.38964e-13   7.49862e-10 DIIS
   @DF-RHF iter  16:  -449.68802162614969   -5.68434e-14   3.24738e-10 DIIS
   @DF-RHF iter  17:  -449.68802162615037   -6.82121e-13   6.52830e-11 DIIS
  Energy and wave function converged.


  ==> Post-Iterations <==

    Orbital Energies [Eh]
    ---------------------

    Doubly Occupied:                                                      

       1A    -15.636969     2A    -15.636969     3A    -15.551539  
       4A    -15.551539     5A    -11.301031     6A    -11.301031  
       7A    -11.263130     8A    -11.263130     9A    -11.245761  
      10A    -11.245761    11A     -1.352903    12A     -1.352903  
      13A     -1.169217    14A     -1.169217    15A     -1.012146  
      16A     -1.012144    17A     -0.824393    18A     -0.824392  
      19A     -0.803830    20A     -0.803829    21A     -0.760618  
      22A     -0.760613    23A     -0.610201    24A     -0.610199  
      25A     -0.603980    26A     -0.603944    27A     -0.601677  
      28A     -0.601676    29A     -0.571285    30A     -0.571285  
      31A     -0.435869    32A     -0.435869    33A     -0.400701  
      34A     -0.400675    35A     -0.320932    36A     -0.320515  

    Virtual:                                                              

      37A      0.024374    38A      0.028199    39A      0.041313  
      40A      0.045718    41A      0.047700    42A      0.053965  
      43A      0.061140    44A      0.065868    45A      0.084924  
      46A      0.100560    47A      0.100972    48A      0.103125  
      49A      0.115201    50A      0.117773    51A      0.122702  
      52A      0.129119    53A      0.134619    54A      0.135991  
      55A      0.137332    56A      0.143152    57A      0.148847  
      58A      0.157139    59A      0.158102    60A      0.162450  
      61A      0.169994    62A      0.170479    63A      0.171738  
      64A      0.176501    65A      0.184197    66A      0.188576  
      67A      0.192087    68A      0.193813    69A      0.209661  
      70A      0.212245    71A      0.214227    72A      0.227150  
      73A      0.237740    74A      0.240421    75A      0.259554  
      76A      0.264364    77A      0.264567    78A      0.266194  
      79A      0.268147    80A      0.269364    81A      0.284710  
      82A      0.293267    83A      0.311760    84A      0.312201  
      85A      0.317441    86A      0.325270    87A      0.339974  
      88A      0.343088    89A      0.365320    90A      0.365370  
      91A      0.369004    92A      0.376350    93A      0.380310  
      94A      0.382339    95A      0.390327    96A      0.398747  
      97A      0.403829    98A      0.409647    99A      0.419328  
     100A      0.419573   101A      0.425922   102A      0.437723  
     103A      0.463814   104A      0.464349   105A      0.473691  
     106A      0.473963   107A      0.484613   108A      0.484765  
     109A      0.488539   110A      0.494340   111A      0.501233  
     112A      0.505474   113A      0.548275   114A      0.558090  
     115A      0.559070   116A      0.569591   117A      0.571973  
     118A      0.573301   119A      0.578975   120A      0.591009  
     121A      0.597035   122A      0.600415   123A      0.602663  
     124A      0.612861   125A      0.625132   126A      0.630135  
     127A      0.642966   128A      0.643921   129A      0.650643  
     130A      0.658704   131A      0.670530   132A      0.670672  
     133A      0.675781   134A      0.676914   135A      0.680163  
     136A      0.681028   137A      0.688182   138A      0.695300  
     139A      0.713353   140A      0.722762   141A      0.728307  
     142A      0.729692   143A      0.742074   144A      0.745791  
     145A      0.764905   146A      0.765005   147A      0.769440  
     148A      0.770309   149A      0.793187   150A      0.794079  
     151A      0.804298   152A      0.806554   153A      0.813699  
     154A      0.831294   155A      0.864481   156A      0.864670  
     157A      0.880194   158A      0.884146   159A      0.888479  
     160A      0.888796   161A      0.891842   162A      0.893809  
     163A      0.957133   164A      0.960920   165A      0.977291  
     166A      0.977431   167A      0.998535   168A      1.004381  
     169A      1.014153   170A      1.016685   171A      1.023467  
     172A      1.023904   173A      1.031246   174A      1.035428  
     175A      1.076821   176A      1.081720   177A      1.085014  
     178A      1.088009   179A      1.128019   180A      1.129532  
     181A      1.141276   182A      1.142187   183A      1.150976  
     184A      1.153276   185A      1.166759   186A      1.170020  
     187A      1.222053   188A      1.227838   189A      1.261751  
     190A      1.264336   191A      1.303983   192A      1.304314  
     193A      1.384637   194A      1.387065   195A      1.397132  
     196A      1.401350   197A      1.453231   198A      1.456301  
     199A      1.504018   200A      1.504436   201A      1.518997  
     202A      1.519088   203A      1.573717   204A      1.575154  
     205A      1.575334   206A      1.575921   207A      1.598303  
     208A      1.598767   209A      1.652155   210A      1.657204  
     211A      1.670420   212A      1.679057   213A      1.699383  
     214A      1.723431   215A      1.726493   216A      1.757371  
     217A      1.785180   218A      1.800043   219A      1.800915  
     220A      1.804075   221A      1.808726   222A      1.816891  
     223A      1.867081   224A      1.873286   225A      1.882403  
     226A      1.883649   227A      1.924994   228A      1.925009  
     229A      1.967113   230A      1.970630   231A      2.022094  
     232A      2.024095   233A      2.025649   234A      2.030532  
     235A      2.073677   236A      2.075916   237A      2.107891  
     238A      2.108638   239A      2.126580   240A      2.129549  
     241A      2.135984   242A      2.136602   243A      2.170717  
     244A      2.171408   245A      2.187839   246A      2.193424  
     247A      2.267664   248A      2.268183   249A      2.275840  
     250A      2.279679   251A      2.301736   252A      2.307335  
     253A      2.334421   254A      2.335057   255A      2.418825  
     256A      2.419695   257A      2.496760   258A      2.499285  
     259A      2.515558   260A      2.519101   261A      2.545733  
     262A      2.552946   263A      2.586193   264A      2.590578  
     265A      2.636732   266A      2.646564   267A      2.734580  
     268A      2.735623   269A      2.747337   270A      2.748079  
     271A      2.768880   272A      2.770883   273A      2.794800  
     274A      2.795636   275A      2.803759   276A      2.808556  
     277A      2.839018   278A      2.847017   279A      2.867338  
     280A      2.867346   281A      2.955064   282A      2.955359  
     283A      2.982325   284A      2.983784   285A      3.051500  
     286A      3.051522   287A      3.070521   288A      3.073450  
     289A      3.198757   290A      3.201781   291A      3.210783  
     292A      3.215138   293A      3.334773   294A      3.335058  
     295A      3.354683   296A      3.372155   297A      3.519825  
     298A      3.520337   299A      3.767908   300A      3.773489  
     301A      4.112828   302A      4.115311  

    Final Occupation by Irrep:
              A 
    DOCC [    36 ]

  @DF-RHF Final Energy:  -449.68802162615037

   => Energetics <=

    Nuclear Repulsion Energy =            417.6780907271063938
    One-Electron Energy =               -1436.8684781175629723
    Two-Electron Energy =                 569.5023657643062052
    Total Energy =                       -449.6880216261504302

Computation Completed


Properties will be evaluated at   0.000000,   0.000000,   0.000000 [a0]

Properties computed using the SCF density matrix

  Nuclear Dipole Moment: [e a0]
     X:  -324.8243      Y:  -698.2861      Z:    22.0234

  Electronic Dipole Moment: [e a0]
     X:   324.8243      Y:   698.2861      Z:   -22.0234

  Dipole Moment: [e a0]
     X:    -0.0000      Y:     0.0000      Z:    -0.0000     Total:     0.0000

  Dipole Moment: [D]
     X:    -0.0000      Y:     0.0000      Z:    -0.0000     Total:     0.0000


*** tstop() called on ds1 at Tue Sep 14 18:01:26 2021
Module time:
	user time   =      30.85 seconds =       0.51 minutes
	system time =       1.07 seconds =       0.02 minutes
	total time  =          7 seconds =       0.12 minutes
Total time:
	user time   =      30.85 seconds =       0.51 minutes
	system time =       1.07 seconds =       0.02 minutes
	total time  =          7 seconds =       0.12 minutes

  //>>>>>>>>>>>>>>>>>>>>>>>>>>>>>>>>>>>//
  //            Monomer A HF           //
  //<<<<<<<<<<<<<<<<<<<<<<<<<<<<<<<<<<<//


*** tstart() called on ds1
*** at Tue Sep 14 18:01:26 2021

   => Loading Basis Set <=

    Name: AUG-CC-PVDZ
    Role: ORBITAL
    Keyword: BASIS
    atoms 1-2, 10-11 entry N          line   218 file /theoryfs2/ds/csargent/miniconda3/envs/cle/share/psi4/basis/aug-cc-pvdz.gbs 
    atoms 3-6, 12-15 entry H          line    40 file /theoryfs2/ds/csargent/miniconda3/envs/cle/share/psi4/basis/aug-cc-pvdz.gbs 
    atoms 7-9, 16-18 entry C          line   182 file /theoryfs2/ds/csargent/miniconda3/envs/cle/share/psi4/basis/aug-cc-pvdz.gbs 


         ---------------------------------------------------------
                                   SCF
               by Justin Turney, Rob Parrish, Andy Simmonett
                          and Daniel G. A. Smith
                              RHF Reference
                        6 Threads,   6675 MiB Core
         ---------------------------------------------------------

  ==> Geometry <==

    Molecular point group: c1
    Full point group: C1

    Geometry (in Bohr), charge = 0, multiplicity = 1:

       Center              X                  Y                   Z               Mass       
    ------------   -----------------  -----------------  -----------------  -----------------
         N           -4.293096210000    -3.068374310000     5.305162310000    14.003074004430
         N           -2.158473710000    -2.926272960000     1.720374480000    14.003074004430
         H           -0.025455870000    -6.359035750000     2.220464520000     1.007825032230
         H           -2.685669680000    -6.532602410000     6.614459540000     1.007825032230
         H           -4.743884230000    -0.006090060000     2.756159680000     1.007825032230
         H           -1.410455400000    -2.247231470000     0.000000000000     1.007825032230
         C           -1.437379910000    -5.075048480000     2.940658910000    12.000000000000
         C           -2.769007820000    -5.146099160000     5.135228800000    12.000000000000
         C           -3.859550360000    -1.777281980000     3.210934110000    12.000000000000
      Gh(N)          -4.729800610000   -16.328460990000    -4.693401680000    14.003074004430
      Gh(N)          -6.864423110000   -16.470562350000    -1.108613840000    14.003074004430
      Gh(H)          -8.997440960000   -13.037799550000    -1.608703890000     1.007825032230
      Gh(H)          -6.337227150000   -12.864232890000    -6.002698910000     1.007825032230
      Gh(H)          -4.279012600000   -19.390745240000    -2.144399040000     1.007825032230
      Gh(H)          -7.612441420000   -17.149603830000     0.611760630000     1.007825032230
      Gh(C)          -7.585516910000   -14.321786820000    -2.328898280000    12.000000000000
      Gh(C)          -6.253889010000   -14.250736140000    -4.523468170000    12.000000000000
      Gh(C)          -5.163346470000   -17.619553320000    -2.599173480000    12.000000000000

  Running in c1 symmetry.

  Rotational constants: A =      0.03104  B =      0.00279  C =      0.00261 [cm^-1]
  Rotational constants: A =    930.41502  B =     83.65062  C =     78.34673 [MHz]
  Nuclear repulsion =  164.086695994184396

  Charge       = 0
  Multiplicity = 1
  Electrons    = 36
  Nalpha       = 18
  Nbeta        = 18

  ==> Algorithm <==

  SCF Algorithm Type is DF.
  DIIS enabled.
  MOM disabled.
  Fractional occupation disabled.
  Guess Type is SAD.
  Energy threshold   = 1.00e-10
  Density threshold  = 1.00e-10
  Integral threshold = 1.00e-12

  ==> Primary Basis <==

  Basis Set: AUG-CC-PVDZ
    Blend: AUG-CC-PVDZ
    Number of shells: 130
    Number of basis functions: 302
    Number of Cartesian functions: 322
    Spherical Harmonics?: true
    Max angular momentum: 2

   => Loading Basis Set <=

    Name: (AUG-CC-PVDZ AUX)
    Role: JKFIT
    Keyword: DF_BASIS_SCF
    atoms 1-2, 10-11 entry N          line   212 file /theoryfs2/ds/csargent/miniconda3/envs/cle/share/psi4/basis/aug-cc-pvdz-jkfit.gbs 
    atoms 3-6, 12-15 entry H          line    70 file /theoryfs2/ds/csargent/miniconda3/envs/cle/share/psi4/basis/aug-cc-pvdz-jkfit.gbs 
    atoms 7-9, 16-18 entry C          line   154 file /theoryfs2/ds/csargent/miniconda3/envs/cle/share/psi4/basis/aug-cc-pvdz-jkfit.gbs 

  ==> Integral Setup <==

  ==> DiskDFJK: Density-Fitted J/K Matrices <==

    J tasked:                  Yes
    K tasked:                  Yes
    wK tasked:                  No
    OpenMP threads:              6
    Integrals threads:           6
    Memory [MiB]:             5006
    Algorithm:                Core
    Integral Cache:           LOAD
    Schwarz Cutoff:          1E-12
    Fitting Condition:       1E-10

   => Auxiliary Basis Set <=

  Basis Set: (AUG-CC-PVDZ AUX)
    Blend: AUG-CC-PVDZ-JKFIT
    Number of shells: 376
    Number of basis functions: 1116
    Number of Cartesian functions: 1290
    Spherical Harmonics?: true
    Max angular momentum: 3

  Minimum eigenvalue in the overlap matrix is 1.7941151130E-05.
  Reciprocal condition number of the overlap matrix is 1.4972493387E-06.
    Using symmetric orthogonalization.

  ==> Pre-Iterations <==

  SCF Guess: Superposition of Atomic Densities via on-the-fly atomic UHF (no occupation information).

   -------------------------
    Irrep   Nso     Nmo    
   -------------------------
     A        302     302 
   -------------------------
    Total     302     302
   -------------------------

  ==> Iterations <==

                           Total Energy        Delta E     RMS |[F,P]|

   @DF-RHF iter SAD:  -224.55857197583541   -2.24559e+02   0.00000e+00 
   @DF-RHF iter   1:  -224.69808026756073   -1.39508e-01   1.63080e-03 DIIS
   @DF-RHF iter   2:  -224.80534368825906   -1.07263e-01   9.27475e-04 DIIS
   @DF-RHF iter   3:  -224.84171768141132   -3.63740e-02   1.74031e-04 DIIS
   @DF-RHF iter   4:  -224.84340351958303   -1.68584e-03   7.99000e-05 DIIS
   @DF-RHF iter   5:  -224.84370516467297   -3.01645e-04   1.26491e-05 DIIS
   @DF-RHF iter   6:  -224.84372250877215   -1.73441e-05   5.61801e-06 DIIS
   @DF-RHF iter   7:  -224.84372559584628   -3.08707e-06   2.19414e-06 DIIS
   @DF-RHF iter   8:  -224.84372632751129   -7.31665e-07   7.77480e-07 DIIS
   @DF-RHF iter   9:  -224.84372643823204   -1.10721e-07   1.87825e-07 DIIS
   @DF-RHF iter  10:  -224.84372644375981   -5.52777e-09   7.32767e-08 DIIS
   @DF-RHF iter  11:  -224.84372644458483   -8.25025e-10   3.26443e-08 DIIS
   @DF-RHF iter  12:  -224.84372644473618   -1.51346e-10   9.69703e-09 DIIS
   @DF-RHF iter  13:  -224.84372644474934   -1.31593e-11   3.58247e-09 DIIS
   @DF-RHF iter  14:  -224.84372644475113   -1.79057e-12   1.57979e-09 DIIS
   @DF-RHF iter  15:  -224.84372644475113    0.00000e+00   5.27267e-10 DIIS
   @DF-RHF iter  16:  -224.84372644475206   -9.37916e-13   2.34402e-10 DIIS
   @DF-RHF iter  17:  -224.84372644475184    2.27374e-13   4.71019e-11 DIIS
  Energy and wave function converged.


  ==> Post-Iterations <==

    Orbital Energies [Eh]
    ---------------------

    Doubly Occupied:                                                      

       1A    -15.637084     2A    -15.551226     3A    -11.300927  
       4A    -11.263171     5A    -11.245669     6A     -1.352881  
       7A     -1.169112     8A     -1.012113     9A     -0.824401  
      10A     -0.803745    11A     -0.760681    12A     -0.610110  
      13A     -0.603966    14A     -0.601937    15A     -0.570959  
      16A     -0.435495    17A     -0.400475    18A     -0.320694  

    Virtual:                                                              

      19A      0.019419    20A      0.028465    21A      0.039451  
      22A      0.041648    23A      0.044819    24A      0.054492  
      25A      0.061308    26A      0.070751    27A      0.077203  
      28A      0.085367    29A      0.096421    30A      0.100664  
      31A      0.101133    32A      0.115673    33A      0.116885  
      34A      0.123917    35A      0.127444    36A      0.131760  
      37A      0.133382    38A      0.135921    39A      0.136333  
      40A      0.143220    41A      0.151276    42A      0.157648  
      43A      0.161351    44A      0.166740    45A      0.172065  
      46A      0.180202    47A      0.181629    48A      0.188957  
      49A      0.194733    50A      0.208205    51A      0.209673  
      52A      0.215413    53A      0.216326    54A      0.221875  
      55A      0.225198    56A      0.232448    57A      0.242691  
      58A      0.251416    59A      0.260792    60A      0.267680  
      61A      0.270507    62A      0.277169    63A      0.286487  
      64A      0.299644    65A      0.308884    66A      0.315021  
      67A      0.316102    68A      0.330540    69A      0.344522  
      70A      0.362026    71A      0.365129    72A      0.371250  
      73A      0.379370    74A      0.385962    75A      0.393674  
      76A      0.399201    77A      0.403992    78A      0.417787  
      79A      0.427988    80A      0.433968    81A      0.445055  
      82A      0.451387    83A      0.453971    84A      0.462591  
      85A      0.465133    86A      0.476017    87A      0.477761  
      88A      0.485401    89A      0.487556    90A      0.497111  
      91A      0.514019    92A      0.520227    93A      0.522524  
      94A      0.537226    95A      0.544342    96A      0.552186  
      97A      0.556817    98A      0.561067    99A      0.571306  
     100A      0.573241   101A      0.580812   102A      0.587856  
     103A      0.592546   104A      0.598935   105A      0.603342  
     106A      0.608392   107A      0.616089   108A      0.627565  
     109A      0.628874   110A      0.642559   111A      0.647885  
     112A      0.656902   113A      0.670773   114A      0.673950  
     115A      0.678926   116A      0.682223   117A      0.685069  
     118A      0.689094   119A      0.711653   120A      0.718959  
     121A      0.728495   122A      0.742529   123A      0.749758  
     124A      0.760713   125A      0.766779   126A      0.775996  
     127A      0.796861   128A      0.801870   129A      0.803577  
     130A      0.813164   131A      0.816542   132A      0.827623  
     133A      0.835018   134A      0.841022   135A      0.861983  
     136A      0.868036   137A      0.881794   138A      0.886915  
     139A      0.891401   140A      0.892571   141A      0.911951  
     142A      0.921746   143A      0.927808   144A      0.958594  
     145A      0.970328   146A      0.977839   147A      0.992766  
     148A      1.003257   149A      1.015997   150A      1.018671  
     151A      1.022147   152A      1.032659   153A      1.061411  
     154A      1.078528   155A      1.084339   156A      1.093475  
     157A      1.106782   158A      1.125009   159A      1.129823  
     160A      1.138158   161A      1.142168   162A      1.151538  
     163A      1.167978   164A      1.173794   165A      1.178304  
     166A      1.198500   167A      1.212022   168A      1.226547  
     169A      1.262498   170A      1.278391   171A      1.294103  
     172A      1.298145   173A      1.304552   174A      1.314842  
     175A      1.321682   176A      1.348154   177A      1.384985  
     178A      1.387580   179A      1.399543   180A      1.455090  
     181A      1.495613   182A      1.504513   183A      1.516905  
     184A      1.520426   185A      1.542666   186A      1.574562  
     187A      1.576007   188A      1.598493   189A      1.655027  
     190A      1.662675   191A      1.675033   192A      1.724384  
     193A      1.731222   194A      1.794949   195A      1.800626  
     196A      1.808283   197A      1.869823   198A      1.882827  
     199A      1.924982   200A      1.968418   201A      2.022836  
     202A      2.027068   203A      2.041954   204A      2.074584  
     205A      2.102518   206A      2.108010   207A      2.120560  
     208A      2.127956   209A      2.136245   210A      2.149494  
     211A      2.155582   212A      2.171309   213A      2.187514  
     214A      2.191528   215A      2.232154   216A      2.252992  
     217A      2.267663   218A      2.277567   219A      2.304341  
     220A      2.325586   221A      2.329418   222A      2.334662  
     223A      2.381600   224A      2.409874   225A      2.419246  
     226A      2.421183   227A      2.462237   228A      2.475834  
     229A      2.495307   230A      2.498427   231A      2.517874  
     232A      2.529458   233A      2.547033   234A      2.551696  
     235A      2.580023   236A      2.588460   237A      2.600407  
     238A      2.642204   239A      2.702908   240A      2.735214  
     241A      2.747894   242A      2.770080   243A      2.792244  
     244A      2.795671   245A      2.806314   246A      2.831806  
     247A      2.842807   248A      2.867383   249A      2.896882  
     250A      2.935114   251A      2.953134   252A      2.955144  
     253A      2.983206   254A      3.044538   255A      3.051496  
     256A      3.071737   257A      3.078082   258A      3.136287  
     259A      3.164362   260A      3.183562   261A      3.200532  
     262A      3.212780   263A      3.214614   264A      3.334950  
     265A      3.342600   266A      3.357056   267A      3.363519  
     268A      3.368459   269A      3.467522   270A      3.498598  
     271A      3.520052   272A      3.592435   273A      3.610350  
     274A      3.708492   275A      3.730786   276A      3.770858  
     277A      3.780216   278A      3.799374   279A      3.861560  
     280A      3.873148   281A      4.004582   282A      4.114094  
     283A      4.214406   284A      4.638148   285A      4.646224  
     286A      4.699035   287A      4.773696   288A      4.886310  
     289A      5.023002   290A      5.256346   291A      5.375810  
     292A      5.495878   293A      5.613039   294A      5.718140  
     295A      5.885637   296A      6.091543   297A      6.198620  
     298A     18.259504   299A     18.591371   300A     19.302813  
     301A     25.311844   302A     25.454870  

    Final Occupation by Irrep:
              A 
    DOCC [    18 ]

  @DF-RHF Final Energy:  -224.84372644475184

   => Energetics <=

    Nuclear Repulsion Energy =            164.0866959941843959
    One-Electron Energy =                -628.9315525323975180
    Two-Electron Energy =                 240.0011300934612564
    Total Energy =                       -224.8437264447518373

Computation Completed


Properties will be evaluated at   0.000000,   0.000000,   0.000000 [a0]

Properties computed using the SCF density matrix

  Nuclear Dipole Moment: [e a0]
     X:  -102.4221      Y:  -129.0981      Z:   128.4908

  Electronic Dipole Moment: [e a0]
     X:   103.2255      Y:   129.2610      Z:  -129.8233

  Dipole Moment: [e a0]
     X:     0.8034      Y:     0.1630      Z:    -1.3325     Total:     1.5645

  Dipole Moment: [D]
     X:     2.0421      Y:     0.4142      Z:    -3.3869     Total:     3.9765


*** tstop() called on ds1 at Tue Sep 14 18:01:30 2021
Module time:
	user time   =      22.21 seconds =       0.37 minutes
	system time =       0.35 seconds =       0.01 minutes
	total time  =          4 seconds =       0.07 minutes
Total time:
	user time   =      53.25 seconds =       0.89 minutes
	system time =       1.43 seconds =       0.02 minutes
	total time  =         11 seconds =       0.18 minutes

  //>>>>>>>>>>>>>>>>>>>>>>>>>>>>>>>>>>>//
  //            Monomer B HF           //
  //<<<<<<<<<<<<<<<<<<<<<<<<<<<<<<<<<<<//


*** tstart() called on ds1
*** at Tue Sep 14 18:01:30 2021

   => Loading Basis Set <=

    Name: AUG-CC-PVDZ
    Role: ORBITAL
    Keyword: BASIS
    atoms 1-2, 10-11 entry N          line   218 file /theoryfs2/ds/csargent/miniconda3/envs/cle/share/psi4/basis/aug-cc-pvdz.gbs 
    atoms 3-6, 12-15 entry H          line    40 file /theoryfs2/ds/csargent/miniconda3/envs/cle/share/psi4/basis/aug-cc-pvdz.gbs 
    atoms 7-9, 16-18 entry C          line   182 file /theoryfs2/ds/csargent/miniconda3/envs/cle/share/psi4/basis/aug-cc-pvdz.gbs 


         ---------------------------------------------------------
                                   SCF
               by Justin Turney, Rob Parrish, Andy Simmonett
                          and Daniel G. A. Smith
                              RHF Reference
                        6 Threads,   6675 MiB Core
         ---------------------------------------------------------

  ==> Geometry <==

    Molecular point group: c1
    Full point group: C1

    Geometry (in Bohr), charge = 0, multiplicity = 1:

       Center              X                  Y                   Z               Mass       
    ------------   -----------------  -----------------  -----------------  -----------------
      Gh(N)          -4.293096210000    -3.068374310000     5.305162310000    14.003074004430
      Gh(N)          -2.158473710000    -2.926272960000     1.720374480000    14.003074004430
      Gh(H)          -0.025455870000    -6.359035750000     2.220464520000     1.007825032230
      Gh(H)          -2.685669680000    -6.532602410000     6.614459540000     1.007825032230
      Gh(H)          -4.743884230000    -0.006090060000     2.756159680000     1.007825032230
      Gh(H)          -1.410455400000    -2.247231470000     0.000000000000     1.007825032230
      Gh(C)          -1.437379910000    -5.075048480000     2.940658910000    12.000000000000
      Gh(C)          -2.769007820000    -5.146099160000     5.135228800000    12.000000000000
      Gh(C)          -3.859550360000    -1.777281980000     3.210934110000    12.000000000000
         N           -4.729800610000   -16.328460990000    -4.693401680000    14.003074004430
         N           -6.864423110000   -16.470562350000    -1.108613840000    14.003074004430
         H           -8.997440960000   -13.037799550000    -1.608703890000     1.007825032230
         H           -6.337227150000   -12.864232890000    -6.002698910000     1.007825032230
         H           -4.279012600000   -19.390745240000    -2.144399040000     1.007825032230
         H           -7.612441420000   -17.149603830000     0.611760630000     1.007825032230
         C           -7.585516910000   -14.321786820000    -2.328898280000    12.000000000000
         C           -6.253889010000   -14.250736140000    -4.523468170000    12.000000000000
         C           -5.163346470000   -17.619553320000    -2.599173480000    12.000000000000

  Running in c1 symmetry.

  Rotational constants: A =      0.03104  B =      0.00279  C =      0.00261 [cm^-1]
  Rotational constants: A =    930.41502  B =     83.65062  C =     78.34673 [MHz]
  Nuclear repulsion =  164.086695886948576

  Charge       = 0
  Multiplicity = 1
  Electrons    = 36
  Nalpha       = 18
  Nbeta        = 18

  ==> Algorithm <==

  SCF Algorithm Type is DF.
  DIIS enabled.
  MOM disabled.
  Fractional occupation disabled.
  Guess Type is SAD.
  Energy threshold   = 1.00e-10
  Density threshold  = 1.00e-10
  Integral threshold = 1.00e-12

  ==> Primary Basis <==

  Basis Set: AUG-CC-PVDZ
    Blend: AUG-CC-PVDZ
    Number of shells: 130
    Number of basis functions: 302
    Number of Cartesian functions: 322
    Spherical Harmonics?: true
    Max angular momentum: 2

   => Loading Basis Set <=

    Name: (AUG-CC-PVDZ AUX)
    Role: JKFIT
    Keyword: DF_BASIS_SCF
    atoms 1-2, 10-11 entry N          line   212 file /theoryfs2/ds/csargent/miniconda3/envs/cle/share/psi4/basis/aug-cc-pvdz-jkfit.gbs 
    atoms 3-6, 12-15 entry H          line    70 file /theoryfs2/ds/csargent/miniconda3/envs/cle/share/psi4/basis/aug-cc-pvdz-jkfit.gbs 
    atoms 7-9, 16-18 entry C          line   154 file /theoryfs2/ds/csargent/miniconda3/envs/cle/share/psi4/basis/aug-cc-pvdz-jkfit.gbs 

  ==> Integral Setup <==

  ==> DiskDFJK: Density-Fitted J/K Matrices <==

    J tasked:                  Yes
    K tasked:                  Yes
    wK tasked:                  No
    OpenMP threads:              6
    Integrals threads:           6
    Memory [MiB]:             5006
    Algorithm:                Core
    Integral Cache:           LOAD
    Schwarz Cutoff:          1E-12
    Fitting Condition:       1E-10

   => Auxiliary Basis Set <=

  Basis Set: (AUG-CC-PVDZ AUX)
    Blend: AUG-CC-PVDZ-JKFIT
    Number of shells: 376
    Number of basis functions: 1116
    Number of Cartesian functions: 1290
    Spherical Harmonics?: true
    Max angular momentum: 3

  Minimum eigenvalue in the overlap matrix is 1.7941151130E-05.
  Reciprocal condition number of the overlap matrix is 1.4972493387E-06.
    Using symmetric orthogonalization.

  ==> Pre-Iterations <==

  SCF Guess: Superposition of Atomic Densities via on-the-fly atomic UHF (no occupation information).

   -------------------------
    Irrep   Nso     Nmo    
   -------------------------
     A        302     302 
   -------------------------
    Total     302     302
   -------------------------

  ==> Iterations <==

                           Total Energy        Delta E     RMS |[F,P]|

   @DF-RHF iter SAD:  -224.55857196723233   -2.24559e+02   0.00000e+00 
   @DF-RHF iter   1:  -224.69808026901381   -1.39508e-01   1.63080e-03 DIIS
   @DF-RHF iter   2:  -224.80534368925711   -1.07263e-01   9.27475e-04 DIIS
   @DF-RHF iter   3:  -224.84171768206363   -3.63740e-02   1.74031e-04 DIIS
   @DF-RHF iter   4:  -224.84340352024350   -1.68584e-03   7.99000e-05 DIIS
   @DF-RHF iter   5:  -224.84370516533568   -3.01645e-04   1.26491e-05 DIIS
   @DF-RHF iter   6:  -224.84372250943497   -1.73441e-05   5.61801e-06 DIIS
   @DF-RHF iter   7:  -224.84372559650879   -3.08707e-06   2.19414e-06 DIIS
   @DF-RHF iter   8:  -224.84372632817437   -7.31666e-07   7.77480e-07 DIIS
   @DF-RHF iter   9:  -224.84372643889472   -1.10720e-07   1.87825e-07 DIIS
   @DF-RHF iter  10:  -224.84372644442288   -5.52816e-09   7.32767e-08 DIIS
   @DF-RHF iter  11:  -224.84372644524748   -8.24599e-10   3.26443e-08 DIIS
   @DF-RHF iter  12:  -224.84372644539945   -1.51971e-10   9.69703e-09 DIIS
   @DF-RHF iter  13:  -224.84372644541264   -1.31877e-11   3.58247e-09 DIIS
   @DF-RHF iter  14:  -224.84372644541443   -1.79057e-12   1.57979e-09 DIIS
   @DF-RHF iter  15:  -224.84372644541438    5.68434e-14   5.27266e-10 DIIS
   @DF-RHF iter  16:  -224.84372644541455   -1.70530e-13   2.34402e-10 DIIS
   @DF-RHF iter  17:  -224.84372644541457   -2.84217e-14   4.71023e-11 DIIS
  Energy and wave function converged.


  ==> Post-Iterations <==

    Orbital Energies [Eh]
    ---------------------

    Doubly Occupied:                                                      

       1A    -15.637084     2A    -15.551226     3A    -11.300927  
       4A    -11.263171     5A    -11.245669     6A     -1.352881  
       7A     -1.169112     8A     -1.012113     9A     -0.824401  
      10A     -0.803745    11A     -0.760681    12A     -0.610110  
      13A     -0.603966    14A     -0.601937    15A     -0.570959  
      16A     -0.435495    17A     -0.400475    18A     -0.320694  

    Virtual:                                                              

      19A      0.019419    20A      0.028465    21A      0.039451  
      22A      0.041648    23A      0.044819    24A      0.054492  
      25A      0.061308    26A      0.070751    27A      0.077203  
      28A      0.085367    29A      0.096421    30A      0.100664  
      31A      0.101133    32A      0.115673    33A      0.116885  
      34A      0.123917    35A      0.127444    36A      0.131760  
      37A      0.133382    38A      0.135921    39A      0.136333  
      40A      0.143220    41A      0.151276    42A      0.157648  
      43A      0.161351    44A      0.166740    45A      0.172065  
      46A      0.180202    47A      0.181629    48A      0.188957  
      49A      0.194733    50A      0.208205    51A      0.209673  
      52A      0.215413    53A      0.216326    54A      0.221875  
      55A      0.225198    56A      0.232448    57A      0.242691  
      58A      0.251416    59A      0.260792    60A      0.267680  
      61A      0.270507    62A      0.277169    63A      0.286487  
      64A      0.299644    65A      0.308884    66A      0.315021  
      67A      0.316102    68A      0.330540    69A      0.344522  
      70A      0.362026    71A      0.365129    72A      0.371250  
      73A      0.379370    74A      0.385962    75A      0.393674  
      76A      0.399201    77A      0.403992    78A      0.417787  
      79A      0.427988    80A      0.433968    81A      0.445055  
      82A      0.451387    83A      0.453971    84A      0.462591  
      85A      0.465133    86A      0.476017    87A      0.477761  
      88A      0.485401    89A      0.487556    90A      0.497111  
      91A      0.514019    92A      0.520227    93A      0.522524  
      94A      0.537226    95A      0.544342    96A      0.552186  
      97A      0.556817    98A      0.561067    99A      0.571306  
     100A      0.573241   101A      0.580812   102A      0.587856  
     103A      0.592546   104A      0.598935   105A      0.603342  
     106A      0.608392   107A      0.616089   108A      0.627565  
     109A      0.628874   110A      0.642559   111A      0.647885  
     112A      0.656902   113A      0.670773   114A      0.673950  
     115A      0.678926   116A      0.682223   117A      0.685069  
     118A      0.689094   119A      0.711653   120A      0.718959  
     121A      0.728495   122A      0.742529   123A      0.749758  
     124A      0.760713   125A      0.766779   126A      0.775996  
     127A      0.796861   128A      0.801870   129A      0.803577  
     130A      0.813164   131A      0.816542   132A      0.827623  
     133A      0.835018   134A      0.841022   135A      0.861983  
     136A      0.868036   137A      0.881794   138A      0.886915  
     139A      0.891401   140A      0.892571   141A      0.911951  
     142A      0.921746   143A      0.927808   144A      0.958594  
     145A      0.970328   146A      0.977839   147A      0.992766  
     148A      1.003257   149A      1.015997   150A      1.018671  
     151A      1.022147   152A      1.032659   153A      1.061411  
     154A      1.078528   155A      1.084339   156A      1.093475  
     157A      1.106782   158A      1.125009   159A      1.129823  
     160A      1.138158   161A      1.142168   162A      1.151538  
     163A      1.167978   164A      1.173794   165A      1.178304  
     166A      1.198500   167A      1.212022   168A      1.226547  
     169A      1.262498   170A      1.278391   171A      1.294103  
     172A      1.298145   173A      1.304552   174A      1.314842  
     175A      1.321682   176A      1.348154   177A      1.384985  
     178A      1.387580   179A      1.399543   180A      1.455090  
     181A      1.495613   182A      1.504513   183A      1.516905  
     184A      1.520426   185A      1.542666   186A      1.574562  
     187A      1.576007   188A      1.598493   189A      1.655027  
     190A      1.662675   191A      1.675033   192A      1.724384  
     193A      1.731222   194A      1.794949   195A      1.800626  
     196A      1.808283   197A      1.869823   198A      1.882827  
     199A      1.924982   200A      1.968418   201A      2.022836  
     202A      2.027068   203A      2.041954   204A      2.074584  
     205A      2.102518   206A      2.108010   207A      2.120560  
     208A      2.127956   209A      2.136245   210A      2.149494  
     211A      2.155582   212A      2.171309   213A      2.187514  
     214A      2.191528   215A      2.232154   216A      2.252992  
     217A      2.267663   218A      2.277567   219A      2.304341  
     220A      2.325586   221A      2.329418   222A      2.334662  
     223A      2.381600   224A      2.409874   225A      2.419246  
     226A      2.421183   227A      2.462237   228A      2.475834  
     229A      2.495307   230A      2.498427   231A      2.517874  
     232A      2.529458   233A      2.547033   234A      2.551696  
     235A      2.580023   236A      2.588460   237A      2.600408  
     238A      2.642204   239A      2.702908   240A      2.735214  
     241A      2.747894   242A      2.770080   243A      2.792244  
     244A      2.795671   245A      2.806314   246A      2.831806  
     247A      2.842807   248A      2.867383   249A      2.896882  
     250A      2.935114   251A      2.953134   252A      2.955144  
     253A      2.983206   254A      3.044538   255A      3.051496  
     256A      3.071737   257A      3.078082   258A      3.136287  
     259A      3.164362   260A      3.183562   261A      3.200532  
     262A      3.212780   263A      3.214614   264A      3.334950  
     265A      3.342600   266A      3.357056   267A      3.363519  
     268A      3.368459   269A      3.467522   270A      3.498598  
     271A      3.520052   272A      3.592435   273A      3.610350  
     274A      3.708492   275A      3.730786   276A      3.770858  
     277A      3.780216   278A      3.799374   279A      3.861560  
     280A      3.873148   281A      4.004582   282A      4.114094  
     283A      4.214406   284A      4.638148   285A      4.646224  
     286A      4.699035   287A      4.773696   288A      4.886310  
     289A      5.023002   290A      5.256346   291A      5.375810  
     292A      5.495878   293A      5.613039   294A      5.718140  
     295A      5.885637   296A      6.091543   297A      6.198620  
     298A     18.259504   299A     18.591371   300A     19.302813  
     301A     25.311844   302A     25.454870  

    Final Occupation by Irrep:
              A 
    DOCC [    18 ]

  @DF-RHF Final Energy:  -224.84372644541457

   => Energetics <=

    Nuclear Repulsion Energy =            164.0866958869485757
    One-Electron Energy =                -628.9315523183203140
    Two-Electron Energy =                 240.0011299859571636
    Total Energy =                       -224.8437264454145748

Computation Completed


Properties will be evaluated at   0.000000,   0.000000,   0.000000 [a0]

Properties computed using the SCF density matrix

  Nuclear Dipole Moment: [e a0]
     X:  -222.4022      Y:  -569.1880      Z:  -106.4674

  Electronic Dipole Moment: [e a0]
     X:   221.5988      Y:   569.0250      Z:   107.7999

  Dipole Moment: [e a0]
     X:    -0.8034      Y:    -0.1630      Z:     1.3325     Total:     1.5645

  Dipole Moment: [D]
     X:    -2.0421      Y:    -0.4142      Z:     3.3869     Total:     3.9765


*** tstop() called on ds1 at Tue Sep 14 18:01:35 2021
Module time:
	user time   =      21.84 seconds =       0.36 minutes
	system time =       0.39 seconds =       0.01 minutes
	total time  =          5 seconds =       0.08 minutes
Total time:
	user time   =      75.27 seconds =       1.25 minutes
	system time =       1.82 seconds =       0.03 minutes
	total time  =         16 seconds =       0.27 minutes
  Constructing Basis Sets for SAPT...

   => Loading Basis Set <=

    Name: (AUG-CC-PVDZ AUX)
    Role: RIFIT
    Keyword: DF_BASIS_SAPT
    atoms 1-2, 10-11 entry N          line   158 file /theoryfs2/ds/csargent/miniconda3/envs/cle/share/psi4/basis/aug-cc-pvdz-ri.gbs 
    atoms 3-6, 12-15 entry H          line    30 file /theoryfs2/ds/csargent/miniconda3/envs/cle/share/psi4/basis/aug-cc-pvdz-ri.gbs 
    atoms 7-9, 16-18 entry C          line   112 file /theoryfs2/ds/csargent/miniconda3/envs/cle/share/psi4/basis/aug-cc-pvdz-ri.gbs 


  //>>>>>>>>>>>>>>>>>>>>>>>>>>>>>>>>>>>//
  //               SAPT0               //
  //<<<<<<<<<<<<<<<<<<<<<<<<<<<<<<<<<<<//


*** tstart() called on ds1
*** at Tue Sep 14 18:01:35 2021

        SAPT0  
    Ed Hohenstein
     6 June 2009

      Orbital Information
  --------------------------
    NSO        =       302
    NMO        =       302
    NRI        =       904
    NOCC A     =        18
    NOCC B     =        18
    FOCC A     =         5
    FOCC B     =         5
    NVIR A     =       284
    NVIR B     =       284

    Elst10,r            =    -0.000554387205 [Eh]
    Exch10              =     0.000000999419 [Eh]
    Exch10 (S^2)        =     0.000000999417 [Eh]

    Iter     Energy [mEh]          dE [mEh]         Residual      Time [s]
       1      -0.00696647       0.006966473       0.912139318             0
       2      -0.00662562      -0.000340856       0.262079282             1
       3      -0.00755664       0.000931024       0.096068510             1
       4      -0.00763728       0.000080639       0.046073838             1
       5      -0.00759714      -0.000040138       0.016615511             1
       6      -0.00759109      -0.000006051       0.005697536             1
       7      -0.00759414       0.000003044       0.002473083             1
       8      -0.00759555       0.000001412       0.000697276             1
       9      -0.00759515      -0.000000394       0.000237144             1
      10      -0.00759502      -0.000000130       0.000050928             2
      11      -0.00759506       0.000000037       0.000018930             2
      12      -0.00759507       0.000000005       0.000006519             2
      13      -0.00759506      -0.000000004       0.000002573             2
      14      -0.00759506      -0.000000000       0.000000862             2

    CHF Iterations converged


    Iter     Energy [mEh]          dE [mEh]         Residual      Time [s]
       1      -0.00696647       0.006966473       0.912139322             0
       2      -0.00662562      -0.000340856       0.262079282             0
       3      -0.00755664       0.000931024       0.096068510             0
       4      -0.00763728       0.000080639       0.046073837             1
       5      -0.00759714      -0.000040138       0.016615511             1
       6      -0.00759109      -0.000006051       0.005697536             1
       7      -0.00759414       0.000003044       0.002473083             1
       8      -0.00759555       0.000001412       0.000697276             1
       9      -0.00759515      -0.000000394       0.000237144             1
      10      -0.00759502      -0.000000130       0.000050928             1
      11      -0.00759506       0.000000037       0.000018930             1
      12      -0.00759507       0.000000005       0.000006519             2
      13      -0.00759506      -0.000000004       0.000002573             2
      14      -0.00759506      -0.000000000       0.000000862             2

    CHF Iterations converged

    Ind20,r (A<-B)      =    -0.000007595061 [Eh]
    Ind20,r (B<-A)      =    -0.000007595061 [Eh]
    Ind20,r             =    -0.000015190123 [Eh]
    Exch-Ind20,r (A<-B) =     0.000000163959 [Eh]
    Exch-Ind20,r (B<-A) =     0.000000163959 [Eh]
    Exch-Ind20,r        =     0.000000327917 [Eh]
    Disp20              =    -0.000161819201 [Eh]
    Disp20 (SS)         =    -0.000080909600 [Eh]
    Disp20 (OS)         =    -0.000080909600 [Eh]
    Exch-Disp20         =     0.000000325876 [Eh]
    Exch-Disp20 (SS)    =     0.000000240014 [Eh]
    Exch-Disp20 (OS)    =     0.000000085862 [Eh]

    SAPT Results 
  --------------------------------------------------------------------------------------------------------
    Electrostatics                 -0.55438721 [mEh]      -0.34788322 [kcal/mol]      -1.45554341 [kJ/mol]
      Elst10,r                     -0.55438721 [mEh]      -0.34788322 [kcal/mol]      -1.45554341 [kJ/mol]

    Exchange                        0.00099942 [mEh]       0.00062714 [kcal/mol]       0.00262397 [kJ/mol]
      Exch10                        0.00099942 [mEh]       0.00062714 [kcal/mol]       0.00262397 [kJ/mol]
      Exch10(S^2)                   0.00099942 [mEh]       0.00062714 [kcal/mol]       0.00262397 [kJ/mol]

    Induction                      -0.01534820 [mEh]      -0.00963114 [kcal/mol]      -0.04029669 [kJ/mol]
      Ind20,r                      -0.01519012 [mEh]      -0.00953195 [kcal/mol]      -0.03988166 [kJ/mol]
      Exch-Ind20,r                  0.00032792 [mEh]       0.00020577 [kcal/mol]       0.00086095 [kJ/mol]
      delta HF,r (2)               -0.00048599 [mEh]      -0.00030496 [kcal/mol]      -0.00127597 [kJ/mol]

    Dispersion                     -0.16149332 [mEh]      -0.10133859 [kcal/mol]      -0.42400067 [kJ/mol]
      Disp20                       -0.16181920 [mEh]      -0.10154308 [kcal/mol]      -0.42485625 [kJ/mol]
      Exch-Disp20                   0.00032588 [mEh]       0.00020449 [kcal/mol]       0.00085559 [kJ/mol]
      Disp20 (SS)                  -0.08090960 [mEh]      -0.05077154 [kcal/mol]      -0.21242813 [kJ/mol]
      Disp20 (OS)                  -0.08090960 [mEh]      -0.05077154 [kcal/mol]      -0.21242813 [kJ/mol]
      Exch-Disp20 (SS)              0.00024001 [mEh]       0.00015061 [kcal/mol]       0.00063016 [kJ/mol]
      Exch-Disp20 (OS)              0.00008586 [mEh]       0.00005388 [kcal/mol]       0.00022543 [kJ/mol]

  Total HF                         -0.56873598 [mEh]      -0.35688722 [kcal/mol]      -1.49321612 [kJ/mol]
  Total SAPT0                      -0.73022931 [mEh]      -0.45822581 [kcal/mol]      -1.91721679 [kJ/mol]

  Special recipe for scaled SAPT0 (see Manual):
    Electrostatics sSAPT0          -0.55438721 [mEh]      -0.34788322 [kcal/mol]      -1.45554341 [kJ/mol]
    Exchange sSAPT0                 0.00099942 [mEh]       0.00062714 [kcal/mol]       0.00262397 [kJ/mol]
    Induction sSAPT0               -0.01534820 [mEh]      -0.00963114 [kcal/mol]      -0.04029669 [kJ/mol]
    Dispersion sSAPT0              -0.16149332 [mEh]      -0.10133859 [kcal/mol]      -0.42400067 [kJ/mol]
  Total sSAPT0                     -0.73022931 [mEh]      -0.45822581 [kcal/mol]      -1.91721679 [kJ/mol]
  --------------------------------------------------------------------------------------------------------

*** tstop() called on ds1 at Tue Sep 14 18:01:45 2021
Module time:
	user time   =      48.74 seconds =       0.81 minutes
	system time =       4.40 seconds =       0.07 minutes
	total time  =         10 seconds =       0.17 minutes
Total time:
	user time   =     124.83 seconds =       2.08 minutes
	system time =       6.24 seconds =       0.10 minutes
	total time  =         26 seconds =       0.43 minutes


Warning! sapt0 does not have an associated derived wavefunction.The returned wavefunction is the dimer SCF wavefunction.


    Psi4 stopped on: Tuesday, 14 September 2021 06:01PM
    Psi4 wall time for execution: 0:00:25.96

*** Psi4 exiting successfully. Buy a developer a beer!
