
    -----------------------------------------------------------------------
          Psi4: An Open-Source Ab Initio Electronic Structure Package
                               Psi4 1.4rc3 

                         Git: Rev {HEAD} 080dba6 


    D. G. A. Smith, L. A. Burns, A. C. Simmonett, R. M. Parrish,
    M. C. Schieber, R. Galvelis, P. Kraus, H. Kruse, R. Di Remigio,
    A. Alenaizan, A. M. James, S. Lehtola, J. P. Misiewicz, M. Scheurer,
    R. A. Shaw, J. B. Schriber, Y. Xie, Z. L. Glick, D. A. Sirianni,
    J. S. O'Brien, J. M. Waldrop, A. Kumar, E. G. Hohenstein,
    B. P. Pritchard, B. R. Brooks, H. F. Schaefer III, A. Yu. Sokolov,
    K. Patkowski, A. E. DePrince III, U. Bozkaya, R. A. King,
    F. A. Evangelista, J. M. Turney, T. D. Crawford, C. D. Sherrill,
    J. Chem. Phys. 152(18) 184108 (2020). https://doi.org/10.1063/5.0006002

                            Additional Code Authors
    E. T. Seidl, C. L. Janssen, E. F. Valeev, M. L. Leininger,
    J. F. Gonthier, R. M. Richard, H. R. McAlexander, M. Saitow, X. Wang,
    P. Verma, and M. H. Lechner

             Previous Authors, Complete List of Code Contributors,
                       and Citations for Specific Modules
    https://github.com/psi4/psi4/blob/master/codemeta.json
    https://github.com/psi4/psi4/graphs/contributors
    http://psicode.org/psi4manual/master/introduction.html#citing-psifour

    -----------------------------------------------------------------------


    Psi4 started on: Tuesday, 14 September 2021 06:19PM

    Process ID: 5514
    Host:       ds1
    PSIDATADIR: /theoryfs2/ds/csargent/miniconda3/envs/cle/share/psi4
    Memory:     500.0 MiB
    Threads:    6
    
  ==> Input File <==

--------------------------------------------------------------------------
# PSI4 file produced by CrystaLattE

# Generated from:               imidazole.xyz
# Psithon input for N-mer:      2mer-0+290
# Number of atoms per monomer:  [9, 9]
# Number of replicas:           1
# COM priority:                 2.936937472416e-05
# Minimum COM separations:      17.152 
# Separation priority:          3.742114635096e-05
# Minimum monomer separations:  15.821 
# Cutoff priority:              1.251668866577e-06
# Nuclear repulsion energy:     368.01578946623397

memory 7 GB

molecule Dimer_0_290 {
  N           -4.29309621      -3.06837431       5.30516231 
  N           -2.15847371      -2.92627296       1.72037448 
  H           -0.02545587      -6.35903575       2.22046452 
  H           -2.68566968      -6.53260241       6.61445954 
  H           -4.74388423      -0.00609006       2.75615968 
  H           -1.41045540      -2.24723147       0.00000000 
  C           -1.43737991      -5.07504848       2.94065891 
  C           -2.76900782      -5.14609916       5.13522880 
  C           -3.85955036      -1.77728198       3.21093411 
--
  N          -24.42199158      -6.17836402     -20.87754540 
  N          -26.55661408      -6.32046538     -17.29275757 
  H          -28.68963193      -2.88770259     -17.79284761 
  H          -26.02941811      -2.71413593     -22.18684263 
  H          -23.97120357      -9.24064828     -18.32854276 
  H          -27.30463239      -6.99950687     -15.57238309 
  C          -27.27770788      -4.17168985     -18.51304200 
  C          -25.94607997      -4.10063917     -20.70761189 
  C          -24.85553744      -7.46945636     -18.78331720 
units = au
no_com
no_reorient
}

set {
  e_convergence 10
  d_convergence 10
  scf_type df
  mp2_type df
  cc_type df
  freeze_core true
}

energy('sapt0/aug-cc-pvdz')

--------------------------------------------------------------------------

  Memory set to   6.519 GiB by Python driver.

Scratch directory: /scratch/csargent/psi4.31446.79897/

Scratch directory: /scratch/csargent/psi4.31446.79897/

  //>>>>>>>>>>>>>>>>>>>>>>>>>>>>>>>>>>>//
  //              Dimer HF             //
  //<<<<<<<<<<<<<<<<<<<<<<<<<<<<<<<<<<<//


*** tstart() called on ds1
*** at Tue Sep 14 18:19:49 2021

   => Loading Basis Set <=

    Name: AUG-CC-PVDZ
    Role: ORBITAL
    Keyword: BASIS
    atoms 1-2, 10-11 entry N          line   218 file /theoryfs2/ds/csargent/miniconda3/envs/cle/share/psi4/basis/aug-cc-pvdz.gbs 
    atoms 3-6, 12-15 entry H          line    40 file /theoryfs2/ds/csargent/miniconda3/envs/cle/share/psi4/basis/aug-cc-pvdz.gbs 
    atoms 7-9, 16-18 entry C          line   182 file /theoryfs2/ds/csargent/miniconda3/envs/cle/share/psi4/basis/aug-cc-pvdz.gbs 


         ---------------------------------------------------------
                                   SCF
               by Justin Turney, Rob Parrish, Andy Simmonett
                          and Daniel G. A. Smith
                              RHF Reference
                        6 Threads,   6675 MiB Core
         ---------------------------------------------------------

  ==> Geometry <==

    Molecular point group: c1
    Full point group: C1

    Geometry (in Bohr), charge = 0, multiplicity = 1:

       Center              X                  Y                   Z               Mass       
    ------------   -----------------  -----------------  -----------------  -----------------
         N           -4.293096210000    -3.068374310000     5.305162310000    14.003074004430
         N           -2.158473710000    -2.926272960000     1.720374480000    14.003074004430
         H           -0.025455870000    -6.359035750000     2.220464520000     1.007825032230
         H           -2.685669680000    -6.532602410000     6.614459540000     1.007825032230
         H           -4.743884230000    -0.006090060000     2.756159680000     1.007825032230
         H           -1.410455400000    -2.247231470000     0.000000000000     1.007825032230
         C           -1.437379910000    -5.075048480000     2.940658910000    12.000000000000
         C           -2.769007820000    -5.146099160000     5.135228800000    12.000000000000
         C           -3.859550360000    -1.777281980000     3.210934110000    12.000000000000
         N          -24.421991580000    -6.178364020000   -20.877545400000    14.003074004430
         N          -26.556614080000    -6.320465380000   -17.292757570000    14.003074004430
         H          -28.689631930000    -2.887702590000   -17.792847610000     1.007825032230
         H          -26.029418110000    -2.714135930000   -22.186842630000     1.007825032230
         H          -23.971203570000    -9.240648280000   -18.328542760000     1.007825032230
         H          -27.304632390000    -6.999506870000   -15.572383090000     1.007825032230
         C          -27.277707880000    -4.171689850000   -18.513042000000    12.000000000000
         C          -25.946079970000    -4.100639170000   -20.707611890000    12.000000000000
         C          -24.855537440000    -7.469456360000   -18.783317200000    12.000000000000

  Running in c1 symmetry.

  Rotational constants: A =      0.02022  B =      0.00082  C =      0.00080 [cm^-1]
  Rotational constants: A =    606.16341  B =     24.70254  C =     23.95316 [MHz]
  Nuclear repulsion =  368.015789520187354

  Charge       = 0
  Multiplicity = 1
  Electrons    = 72
  Nalpha       = 36
  Nbeta        = 36

  ==> Algorithm <==

  SCF Algorithm Type is DF.
  DIIS enabled.
  MOM disabled.
  Fractional occupation disabled.
  Guess Type is SAD.
  Energy threshold   = 1.00e-10
  Density threshold  = 1.00e-10
  Integral threshold = 1.00e-12

  ==> Primary Basis <==

  Basis Set: AUG-CC-PVDZ
    Blend: AUG-CC-PVDZ
    Number of shells: 130
    Number of basis functions: 302
    Number of Cartesian functions: 322
    Spherical Harmonics?: true
    Max angular momentum: 2

   => Loading Basis Set <=

    Name: (AUG-CC-PVDZ AUX)
    Role: JKFIT
    Keyword: DF_BASIS_SCF
    atoms 1-2, 10-11 entry N          line   212 file /theoryfs2/ds/csargent/miniconda3/envs/cle/share/psi4/basis/aug-cc-pvdz-jkfit.gbs 
    atoms 3-6, 12-15 entry H          line    70 file /theoryfs2/ds/csargent/miniconda3/envs/cle/share/psi4/basis/aug-cc-pvdz-jkfit.gbs 
    atoms 7-9, 16-18 entry C          line   154 file /theoryfs2/ds/csargent/miniconda3/envs/cle/share/psi4/basis/aug-cc-pvdz-jkfit.gbs 

  ==> Integral Setup <==

  ==> DiskDFJK: Density-Fitted J/K Matrices <==

    J tasked:                  Yes
    K tasked:                  Yes
    wK tasked:                  No
    OpenMP threads:              6
    Integrals threads:           6
    Memory [MiB]:             5006
    Algorithm:                Core
    Integral Cache:           SAVE
    Schwarz Cutoff:          1E-12
    Fitting Condition:       1E-10

   => Auxiliary Basis Set <=

  Basis Set: (AUG-CC-PVDZ AUX)
    Blend: AUG-CC-PVDZ-JKFIT
    Number of shells: 376
    Number of basis functions: 1116
    Number of Cartesian functions: 1290
    Spherical Harmonics?: true
    Max angular momentum: 3

  Minimum eigenvalue in the overlap matrix is 2.1837059743E-05.
  Reciprocal condition number of the overlap matrix is 1.8394511022E-06.
    Using symmetric orthogonalization.

  ==> Pre-Iterations <==

  SCF Guess: Superposition of Atomic Densities via on-the-fly atomic UHF (no occupation information).

   -------------------------
    Irrep   Nso     Nmo    
   -------------------------
     A        302     302 
   -------------------------
    Total     302     302
   -------------------------

  ==> Iterations <==

                           Total Energy        Delta E     RMS |[F,P]|

   @DF-RHF iter SAD:  -449.11714338898980   -4.49117e+02   0.00000e+00 
   @DF-RHF iter   1:  -449.39633555823593   -2.79192e-01   2.30564e-03 DIIS
   @DF-RHF iter   2:  -449.61082580820937   -2.14490e-01   1.31066e-03 DIIS
   @DF-RHF iter   3:  -449.68345850598973   -7.26327e-02   2.45866e-04 DIIS
   @DF-RHF iter   4:  -449.68682470413455   -3.36620e-03   1.12846e-04 DIIS
   @DF-RHF iter   5:  -449.68742627659594   -6.01572e-04   1.78773e-05 DIIS
   @DF-RHF iter   6:  -449.68746092030068   -3.46437e-05   7.94095e-06 DIIS
   @DF-RHF iter   7:  -449.68746709134950   -6.17105e-06   3.10253e-06 DIIS
   @DF-RHF iter   8:  -449.68746855479418   -1.46344e-06   1.09955e-06 DIIS
   @DF-RHF iter   9:  -449.68746877639910   -2.21605e-07   2.65301e-07 DIIS
   @DF-RHF iter  10:  -449.68746878746117   -1.10621e-08   1.03161e-07 DIIS
   @DF-RHF iter  11:  -449.68746878909974   -1.63857e-09   4.62525e-08 DIIS
   @DF-RHF iter  12:  -449.68746878940271   -3.02975e-10   1.37026e-08 DIIS
   @DF-RHF iter  13:  -449.68746878942858   -2.58638e-11   5.06905e-09 DIIS
   @DF-RHF iter  14:  -449.68746878943222   -3.63798e-12   2.23788e-09 DIIS
   @DF-RHF iter  15:  -449.68746878943267   -4.54747e-13   7.45258e-10 DIIS
   @DF-RHF iter  16:  -449.68746878943290   -2.27374e-13   3.31006e-10 DIIS
   @DF-RHF iter  17:  -449.68746878943307   -1.70530e-13   6.66141e-11 DIIS
  Energy and wave function converged.


  ==> Post-Iterations <==

    Orbital Energies [Eh]
    ---------------------

    Doubly Occupied:                                                      

       1A    -15.637297     2A    -15.637297     3A    -15.551495  
       4A    -15.551495     5A    -11.301176     6A    -11.301176  
       7A    -11.263410     8A    -11.263410     9A    -11.245914  
      10A    -11.245914    11A     -1.353115    12A     -1.353115  
      13A     -1.169355    14A     -1.169355    15A     -1.012352  
      16A     -1.012352    17A     -0.824630    18A     -0.824630  
      19A     -0.803985    20A     -0.803985    21A     -0.760912  
      22A     -0.760912    23A     -0.610347    24A     -0.610347  
      25A     -0.604203    26A     -0.604203    27A     -0.602160  
      28A     -0.602160    29A     -0.571215    30A     -0.571215  
      31A     -0.435773    32A     -0.435773    33A     -0.400730  
      34A     -0.400730    35A     -0.320942    36A     -0.320942  

    Virtual:                                                              

      37A      0.025384    38A      0.025391    39A      0.041418  
      40A      0.041425    41A      0.049708    42A      0.049709  
      43A      0.061656    44A      0.061657    45A      0.088817  
      46A      0.088818    47A      0.101122    48A      0.101122  
      49A      0.120571    50A      0.120572    51A      0.125321  
      52A      0.125322    53A      0.133382    54A      0.133383  
      55A      0.133479    56A      0.133482    57A      0.140638  
      58A      0.140638    59A      0.156318    60A      0.156320  
      61A      0.158499    62A      0.158536    63A      0.171647  
      64A      0.171648    65A      0.177972    66A      0.177972  
      67A      0.187039    68A      0.187039    69A      0.211262  
      70A      0.211262    71A      0.219989    72A      0.219992  
      73A      0.232074    74A      0.232074    75A      0.241172  
      76A      0.241173    77A      0.261395    78A      0.261396  
      79A      0.267449    80A      0.267450    81A      0.277570  
      82A      0.277571    83A      0.301485    84A      0.301486  
      85A      0.314146    86A      0.314146    87A      0.337932  
      88A      0.337932    89A      0.361279    90A      0.361280  
      91A      0.370528    92A      0.370529    93A      0.379620  
      94A      0.379624    95A      0.388065    96A      0.388072  
      97A      0.396881    98A      0.396884    99A      0.416738  
     100A      0.416761   101A      0.428704   102A      0.428705  
     103A      0.451808   104A      0.451808   105A      0.466115  
     106A      0.466116   107A      0.481024   108A      0.481025  
     109A      0.486035   110A      0.486036   111A      0.487895  
     112A      0.487896   113A      0.551462   114A      0.551462  
     115A      0.556147   116A      0.556155   117A      0.568039  
     118A      0.568039   119A      0.576230   120A      0.576230  
     121A      0.594025   122A      0.594026   123A      0.598726  
     124A      0.598726   125A      0.615800   126A      0.615801  
     127A      0.636290   128A      0.636292   129A      0.652238  
     130A      0.652239   131A      0.669030   132A      0.669030  
     133A      0.671077   134A      0.671077   135A      0.677964  
     136A      0.677966   137A      0.683624   138A      0.683624  
     139A      0.714457   140A      0.714457   141A      0.725549  
     142A      0.725550   143A      0.740983   144A      0.740983  
     145A      0.762431   146A      0.762431   147A      0.767134  
     148A      0.767136   149A      0.790688   150A      0.790688  
     151A      0.793339   152A      0.793340   153A      0.809513  
     154A      0.809514   155A      0.860144   156A      0.860148  
     157A      0.871165   158A      0.871167   159A      0.885487  
     160A      0.885487   161A      0.889564   162A      0.889564  
     163A      0.954092   164A      0.954093   165A      0.976727  
     166A      0.976728   167A      0.998102   168A      0.998105  
     169A      1.010409   170A      1.010409   171A      1.017134  
     172A      1.017134   173A      1.030432   174A      1.030433  
     175A      1.077073   176A      1.077073   177A      1.084298  
     178A      1.084298   179A      1.126720   180A      1.126721  
     181A      1.140228   182A      1.140229   183A      1.149317  
     184A      1.149317   185A      1.166908   186A      1.166911  
     187A      1.217175   188A      1.217175   189A      1.260489  
     190A      1.260490   191A      1.302269   192A      1.302269  
     193A      1.384797   194A      1.384800   195A      1.397869  
     196A      1.397870   197A      1.450889   198A      1.450889  
     199A      1.503024   200A      1.503026   201A      1.518161  
     202A      1.518161   203A      1.573873   204A      1.573873  
     205A      1.574011   206A      1.574012   207A      1.596129  
     208A      1.596134   209A      1.651894   210A      1.651894  
     211A      1.671248   212A      1.671248   213A      1.705026  
     214A      1.705026   215A      1.724212   216A      1.724212  
     217A      1.782393   218A      1.782393   219A      1.798808  
     220A      1.798809   221A      1.806793   222A      1.806793  
     223A      1.864685   224A      1.864688   225A      1.881227  
     226A      1.881228   227A      1.924129   228A      1.924129  
     229A      1.964736   230A      1.964737   231A      2.021779  
     232A      2.021781   233A      2.025196   234A      2.025197  
     235A      2.072734   236A      2.072735   237A      2.106800  
     238A      2.106802   239A      2.126505   240A      2.126505  
     241A      2.135708   242A      2.135708   243A      2.168423  
     244A      2.168424   245A      2.178574   246A      2.178575  
     247A      2.266838   248A      2.266838   249A      2.275706  
     250A      2.275706   251A      2.300673   252A      2.300673  
     253A      2.331820   254A      2.331820   255A      2.417511  
     256A      2.417511   257A      2.496698   258A      2.496698  
     259A      2.513764   260A      2.513764   261A      2.545131  
     262A      2.545134   263A      2.585494   264A      2.585495  
     265A      2.633508   266A      2.633508   267A      2.733835  
     268A      2.733836   269A      2.746766   270A      2.746766  
     271A      2.766837   272A      2.766838   273A      2.793897  
     274A      2.793897   275A      2.803182   276A      2.803182  
     277A      2.837408   278A      2.837409   279A      2.866962  
     280A      2.866962   281A      2.952494   282A      2.952495  
     283A      2.980595   284A      2.980595   285A      3.050948  
     286A      3.050948   287A      3.069657   288A      3.069657  
     289A      3.198911   290A      3.198912   291A      3.208545  
     292A      3.208545   293A      3.334567   294A      3.334567  
     295A      3.354312   296A      3.354312   297A      3.518290  
     298A      3.518291   299A      3.768032   300A      3.768033  
     301A      4.108781   302A      4.108782  

    Final Occupation by Irrep:
              A 
    DOCC [    36 ]

  @DF-RHF Final Energy:  -449.68746878943307

   => Energetics <=

    Nuclear Repulsion Energy =            368.0157895201873544
    One-Electron Energy =               -1337.5304680717090378
    Two-Electron Energy =                 519.8272097620886143
    Total Energy =                       -449.6874687894330691

Computation Completed


Properties will be evaluated at   0.000000,   0.000000,   0.000000 [a0]

Properties computed using the SCF density matrix

  Nuclear Dipole Moment: [e a0]
     X: -1033.7432      Y:  -332.8826      Z:  -560.6058

  Electronic Dipole Moment: [e a0]
     X:  1033.7432      Y:   332.8826      Z:   560.6058

  Dipole Moment: [e a0]
     X:    -0.0000      Y:    -0.0000      Z:    -0.0000     Total:     0.0000

  Dipole Moment: [D]
     X:    -0.0000      Y:    -0.0000      Z:    -0.0000     Total:     0.0000


*** tstop() called on ds1 at Tue Sep 14 18:19:54 2021
Module time:
	user time   =      22.66 seconds =       0.38 minutes
	system time =       0.57 seconds =       0.01 minutes
	total time  =          5 seconds =       0.08 minutes
Total time:
	user time   =      22.66 seconds =       0.38 minutes
	system time =       0.57 seconds =       0.01 minutes
	total time  =          5 seconds =       0.08 minutes

  //>>>>>>>>>>>>>>>>>>>>>>>>>>>>>>>>>>>//
  //            Monomer A HF           //
  //<<<<<<<<<<<<<<<<<<<<<<<<<<<<<<<<<<<//


*** tstart() called on ds1
*** at Tue Sep 14 18:19:54 2021

   => Loading Basis Set <=

    Name: AUG-CC-PVDZ
    Role: ORBITAL
    Keyword: BASIS
    atoms 1-2, 10-11 entry N          line   218 file /theoryfs2/ds/csargent/miniconda3/envs/cle/share/psi4/basis/aug-cc-pvdz.gbs 
    atoms 3-6, 12-15 entry H          line    40 file /theoryfs2/ds/csargent/miniconda3/envs/cle/share/psi4/basis/aug-cc-pvdz.gbs 
    atoms 7-9, 16-18 entry C          line   182 file /theoryfs2/ds/csargent/miniconda3/envs/cle/share/psi4/basis/aug-cc-pvdz.gbs 


         ---------------------------------------------------------
                                   SCF
               by Justin Turney, Rob Parrish, Andy Simmonett
                          and Daniel G. A. Smith
                              RHF Reference
                        6 Threads,   6675 MiB Core
         ---------------------------------------------------------

  ==> Geometry <==

    Molecular point group: c1
    Full point group: C1

    Geometry (in Bohr), charge = 0, multiplicity = 1:

       Center              X                  Y                   Z               Mass       
    ------------   -----------------  -----------------  -----------------  -----------------
         N           -4.293096210000    -3.068374310000     5.305162310000    14.003074004430
         N           -2.158473710000    -2.926272960000     1.720374480000    14.003074004430
         H           -0.025455870000    -6.359035750000     2.220464520000     1.007825032230
         H           -2.685669680000    -6.532602410000     6.614459540000     1.007825032230
         H           -4.743884230000    -0.006090060000     2.756159680000     1.007825032230
         H           -1.410455400000    -2.247231470000     0.000000000000     1.007825032230
         C           -1.437379910000    -5.075048480000     2.940658910000    12.000000000000
         C           -2.769007820000    -5.146099160000     5.135228800000    12.000000000000
         C           -3.859550360000    -1.777281980000     3.210934110000    12.000000000000
      Gh(N)         -24.421991580000    -6.178364020000   -20.877545400000    14.003074004430
      Gh(N)         -26.556614080000    -6.320465380000   -17.292757570000    14.003074004430
      Gh(H)         -28.689631930000    -2.887702590000   -17.792847610000     1.007825032230
      Gh(H)         -26.029418110000    -2.714135930000   -22.186842630000     1.007825032230
      Gh(H)         -23.971203570000    -9.240648280000   -18.328542760000     1.007825032230
      Gh(H)         -27.304632390000    -6.999506870000   -15.572383090000     1.007825032230
      Gh(C)         -27.277707880000    -4.171689850000   -18.513042000000    12.000000000000
      Gh(C)         -25.946079970000    -4.100639170000   -20.707611890000    12.000000000000
      Gh(C)         -24.855537440000    -7.469456360000   -18.783317200000    12.000000000000

  Running in c1 symmetry.

  Rotational constants: A =      0.02022  B =      0.00082  C =      0.00080 [cm^-1]
  Rotational constants: A =    606.16341  B =     24.70254  C =     23.95316 [MHz]
  Nuclear repulsion =  164.086695994184396

  Charge       = 0
  Multiplicity = 1
  Electrons    = 36
  Nalpha       = 18
  Nbeta        = 18

  ==> Algorithm <==

  SCF Algorithm Type is DF.
  DIIS enabled.
  MOM disabled.
  Fractional occupation disabled.
  Guess Type is SAD.
  Energy threshold   = 1.00e-10
  Density threshold  = 1.00e-10
  Integral threshold = 1.00e-12

  ==> Primary Basis <==

  Basis Set: AUG-CC-PVDZ
    Blend: AUG-CC-PVDZ
    Number of shells: 130
    Number of basis functions: 302
    Number of Cartesian functions: 322
    Spherical Harmonics?: true
    Max angular momentum: 2

   => Loading Basis Set <=

    Name: (AUG-CC-PVDZ AUX)
    Role: JKFIT
    Keyword: DF_BASIS_SCF
    atoms 1-2, 10-11 entry N          line   212 file /theoryfs2/ds/csargent/miniconda3/envs/cle/share/psi4/basis/aug-cc-pvdz-jkfit.gbs 
    atoms 3-6, 12-15 entry H          line    70 file /theoryfs2/ds/csargent/miniconda3/envs/cle/share/psi4/basis/aug-cc-pvdz-jkfit.gbs 
    atoms 7-9, 16-18 entry C          line   154 file /theoryfs2/ds/csargent/miniconda3/envs/cle/share/psi4/basis/aug-cc-pvdz-jkfit.gbs 

  ==> Integral Setup <==

  ==> DiskDFJK: Density-Fitted J/K Matrices <==

    J tasked:                  Yes
    K tasked:                  Yes
    wK tasked:                  No
    OpenMP threads:              6
    Integrals threads:           6
    Memory [MiB]:             5006
    Algorithm:                Core
    Integral Cache:           LOAD
    Schwarz Cutoff:          1E-12
    Fitting Condition:       1E-10

   => Auxiliary Basis Set <=

  Basis Set: (AUG-CC-PVDZ AUX)
    Blend: AUG-CC-PVDZ-JKFIT
    Number of shells: 376
    Number of basis functions: 1116
    Number of Cartesian functions: 1290
    Spherical Harmonics?: true
    Max angular momentum: 3

  Minimum eigenvalue in the overlap matrix is 2.1837059743E-05.
  Reciprocal condition number of the overlap matrix is 1.8394511022E-06.
    Using symmetric orthogonalization.

  ==> Pre-Iterations <==

  SCF Guess: Superposition of Atomic Densities via on-the-fly atomic UHF (no occupation information).

   -------------------------
    Irrep   Nso     Nmo    
   -------------------------
     A        302     302 
   -------------------------
    Total     302     302
   -------------------------

  ==> Iterations <==

                           Total Energy        Delta E     RMS |[F,P]|

   @DF-RHF iter SAD:  -224.55857169531808   -2.24559e+02   0.00000e+00 
   @DF-RHF iter   1:  -224.69806464898119   -1.39493e-01   1.63067e-03 DIIS
   @DF-RHF iter   2:  -224.80532026755813   -1.07256e-01   9.27384e-04 DIIS
   @DF-RHF iter   3:  -224.84168817147406   -3.63679e-02   1.74019e-04 DIIS
   @DF-RHF iter   4:  -224.84337342355042   -1.68525e-03   7.98972e-05 DIIS
   @DF-RHF iter   5:  -224.84367500426305   -3.01581e-04   1.26452e-05 DIIS
   @DF-RHF iter   6:  -224.84369234129619   -1.73370e-05   5.61871e-06 DIIS
   @DF-RHF iter   7:  -224.84369542936543   -3.08807e-06   2.19503e-06 DIIS
   @DF-RHF iter   8:  -224.84369616128416   -7.31919e-07   7.77587e-07 DIIS
   @DF-RHF iter   9:  -224.84369627207778   -1.10794e-07   1.87961e-07 DIIS
   @DF-RHF iter  10:  -224.84369627761379   -5.53601e-09   7.33125e-08 DIIS
   @DF-RHF iter  11:  -224.84369627844038   -8.26589e-10   3.26918e-08 DIIS
   @DF-RHF iter  12:  -224.84369627859229   -1.51914e-10   9.70884e-09 DIIS
   @DF-RHF iter  13:  -224.84369627860519   -1.29035e-11   3.58840e-09 DIIS
   @DF-RHF iter  14:  -224.84369627860670   -1.50635e-12   1.58275e-09 DIIS
   @DF-RHF iter  15:  -224.84369627860747   -7.67386e-13   5.27556e-10 DIIS
   @DF-RHF iter  16:  -224.84369627860750   -2.84217e-14   2.34517e-10 DIIS
   @DF-RHF iter  17:  -224.84369627860724    2.55795e-13   4.71139e-11 DIIS
  Energy and wave function converged.


  ==> Post-Iterations <==

    Orbital Energies [Eh]
    ---------------------

    Doubly Occupied:                                                      

       1A    -15.637071     2A    -15.551216     3A    -11.300916  
       4A    -11.263160     5A    -11.245653     6A     -1.352867  
       7A     -1.169098     8A     -1.012098     9A     -0.824390  
      10A     -0.803731    11A     -0.760666    12A     -0.610096  
      13A     -0.603958    14A     -0.601922    15A     -0.570942  
      16A     -0.435483    17A     -0.400464    18A     -0.320685  

    Virtual:                                                              

      19A      0.022433    20A      0.025388    21A      0.039960  
      22A      0.041580    23A      0.043505    24A      0.049997  
      25A      0.061864    26A      0.067709    27A      0.076339  
      28A      0.086016    29A      0.089096    30A      0.097439  
      31A      0.101397    32A      0.120831    33A      0.124494  
      34A      0.124827    35A      0.125577    36A      0.126664  
      37A      0.127157    38A      0.133472    39A      0.133772  
      40A      0.133917    41A      0.138031    42A      0.140942  
      43A      0.156500    44A      0.156559    45A      0.158699  
      46A      0.171988    47A      0.178189    48A      0.187224  
      49A      0.192155    50A      0.207669    51A      0.209216  
      52A      0.211559    53A      0.212260    54A      0.220075  
      55A      0.220268    56A      0.222376    57A      0.232359  
      58A      0.232984    59A      0.241408    60A      0.261605  
      61A      0.267803    62A      0.272047    63A      0.277911  
      64A      0.299179    65A      0.301746    66A      0.306302  
      67A      0.314442    68A      0.319102    69A      0.338197  
      70A      0.360005    71A      0.361488    72A      0.370745  
      73A      0.375389    74A      0.379800    75A      0.388291  
      76A      0.393288    77A      0.397097    78A      0.417031  
      79A      0.427274    80A      0.429000    81A      0.435113  
      82A      0.440189    83A      0.448951    84A      0.452059  
      85A      0.452073    86A      0.466350    87A      0.468058  
      88A      0.480893    89A      0.481229    90A      0.486283  
      91A      0.488151    92A      0.517199    93A      0.520497  
      94A      0.535858    95A      0.538187    96A      0.543006  
      97A      0.551710    98A      0.555750    99A      0.556382  
     100A      0.568280   101A      0.576474   102A      0.579328  
     103A      0.587438   104A      0.594249   105A      0.598939  
     106A      0.606301   107A      0.611923   108A      0.616080  
     109A      0.618247   110A      0.636538   111A      0.639647  
     112A      0.652504   113A      0.669282   114A      0.671337  
     115A      0.677547   116A      0.678185   117A      0.683650  
     118A      0.683874   119A      0.711033   120A      0.714698  
     121A      0.725758   122A      0.735973   123A      0.741238  
     124A      0.756044   125A      0.762698   126A      0.767400  
     127A      0.790929   128A      0.793606   129A      0.798132  
     130A      0.809747   131A      0.810367   132A      0.812362  
     133A      0.823157   134A      0.836446   135A      0.859498  
     136A      0.860398   137A      0.871425   138A      0.885765  
     139A      0.886429   140A      0.889823   141A      0.909632  
     142A      0.919525   143A      0.926777   144A      0.954351  
     145A      0.968629   146A      0.976964   147A      0.991692  
     148A      0.998360   149A      1.010706   150A      1.015328  
     151A      1.017404   152A      1.030676   153A      1.058897  
     154A      1.077353   155A      1.078532   156A      1.084552  
     157A      1.103553   158A      1.115930   159A      1.126983  
     160A      1.132421   161A      1.140497   162A      1.149565  
     163A      1.167170   164A      1.170773   165A      1.173959  
     166A      1.197457   167A      1.210501   168A      1.217445  
     169A      1.260721   170A      1.277901   171A      1.290544  
     172A      1.296867   173A      1.302539   174A      1.312460  
     175A      1.318025   176A      1.347466   177A      1.384053  
     178A      1.385028   179A      1.398145   180A      1.451143  
     181A      1.494843   182A      1.503288   183A      1.515754  
     184A      1.518410   185A      1.541273   186A      1.574127  
     187A      1.574285   188A      1.596381   189A      1.652159  
     190A      1.660862   191A      1.671505   192A      1.705286  
     193A      1.724477   194A      1.782643   195A      1.799067  
     196A      1.807063   197A      1.864950   198A      1.881477  
     199A      1.924391   200A      1.964987   201A      2.022005  
     202A      2.025429   203A      2.039606   204A      2.072981  
     205A      2.100998   206A      2.107054   207A      2.119381  
     208A      2.126759   209A      2.131318   210A      2.135965  
     211A      2.149439   212A      2.168670   213A      2.178815  
     214A      2.185046   215A      2.229732   216A      2.252700  
     217A      2.267082   218A      2.275963   219A      2.300924  
     220A      2.308638   221A      2.327139   222A      2.332072  
     223A      2.376822   224A      2.405743   225A      2.413395  
     226A      2.417758   227A      2.455770   228A      2.470856  
     229A      2.493969   230A      2.496919   231A      2.514025  
     232A      2.525895   233A      2.545345   234A      2.545464  
     235A      2.576913   236A      2.585743   237A      2.599901  
     238A      2.633765   239A      2.696329   240A      2.734093  
     241A      2.747025   242A      2.767089   243A      2.790432  
     244A      2.794149   245A      2.803444   246A      2.828903  
     247A      2.837641   248A      2.867213   249A      2.895842  
     250A      2.933367   251A      2.949539   252A      2.952738  
     253A      2.980862   254A      3.043623   255A      3.051201  
     256A      3.069910   257A      3.076312   258A      3.132041  
     259A      3.159759   260A      3.183044   261A      3.199163  
     262A      3.208795   263A      3.213481   264A      3.334816  
     265A      3.340986   266A      3.354572   267A      3.354891  
     268A      3.363027   269A      3.458823   270A      3.494541  
     271A      3.518552   272A      3.569798   273A      3.609002  
     274A      3.707404   275A      3.726872   276A      3.768294  
     277A      3.778546   278A      3.798388   279A      3.858097  
     280A      3.870865   281A      4.004021   282A      4.109022  
     283A      4.212936   284A      4.636887   285A      4.638954  
     286A      4.696102   287A      4.771969   288A      4.880256  
     289A      5.021572   290A      5.254805   291A      5.373335  
     292A      5.494954   293A      5.610540   294A      5.716482  
     295A      5.884084   296A      6.089920   297A      6.198317  
     298A     18.255628   299A     18.590294   300A     19.300589  
     301A     25.312024   302A     25.453496  

    Final Occupation by Irrep:
              A 
    DOCC [    18 ]

  @DF-RHF Final Energy:  -224.84369627860724

   => Energetics <=

    Nuclear Repulsion Energy =            164.0866959941843959
    One-Electron Energy =                -628.9319563046711892
    Two-Electron Energy =                 240.0015640318795249
    Total Energy =                       -224.8436962786072399

Computation Completed


Properties will be evaluated at   0.000000,   0.000000,   0.000000 [a0]

Properties computed using the SCF density matrix

  Nuclear Dipole Moment: [e a0]
     X:  -102.4221      Y:  -129.0981      Z:   128.4908

  Electronic Dipole Moment: [e a0]
     X:   103.2259      Y:   129.2613      Z:  -129.8232

  Dipole Moment: [e a0]
     X:     0.8038      Y:     0.1633      Z:    -1.3324     Total:     1.5646

  Dipole Moment: [D]
     X:     2.0431      Y:     0.4150      Z:    -3.3867     Total:     3.9769


*** tstop() called on ds1 at Tue Sep 14 18:19:57 2021
Module time:
	user time   =      16.23 seconds =       0.27 minutes
	system time =       0.32 seconds =       0.01 minutes
	total time  =          3 seconds =       0.05 minutes
Total time:
	user time   =      39.07 seconds =       0.65 minutes
	system time =       0.90 seconds =       0.02 minutes
	total time  =          8 seconds =       0.13 minutes

  //>>>>>>>>>>>>>>>>>>>>>>>>>>>>>>>>>>>//
  //            Monomer B HF           //
  //<<<<<<<<<<<<<<<<<<<<<<<<<<<<<<<<<<<//


*** tstart() called on ds1
*** at Tue Sep 14 18:19:57 2021

   => Loading Basis Set <=

    Name: AUG-CC-PVDZ
    Role: ORBITAL
    Keyword: BASIS
    atoms 1-2, 10-11 entry N          line   218 file /theoryfs2/ds/csargent/miniconda3/envs/cle/share/psi4/basis/aug-cc-pvdz.gbs 
    atoms 3-6, 12-15 entry H          line    40 file /theoryfs2/ds/csargent/miniconda3/envs/cle/share/psi4/basis/aug-cc-pvdz.gbs 
    atoms 7-9, 16-18 entry C          line   182 file /theoryfs2/ds/csargent/miniconda3/envs/cle/share/psi4/basis/aug-cc-pvdz.gbs 


         ---------------------------------------------------------
                                   SCF
               by Justin Turney, Rob Parrish, Andy Simmonett
                          and Daniel G. A. Smith
                              RHF Reference
                        6 Threads,   6675 MiB Core
         ---------------------------------------------------------

  ==> Geometry <==

    Molecular point group: c1
    Full point group: C1

    Geometry (in Bohr), charge = 0, multiplicity = 1:

       Center              X                  Y                   Z               Mass       
    ------------   -----------------  -----------------  -----------------  -----------------
      Gh(N)          -4.293096210000    -3.068374310000     5.305162310000    14.003074004430
      Gh(N)          -2.158473710000    -2.926272960000     1.720374480000    14.003074004430
      Gh(H)          -0.025455870000    -6.359035750000     2.220464520000     1.007825032230
      Gh(H)          -2.685669680000    -6.532602410000     6.614459540000     1.007825032230
      Gh(H)          -4.743884230000    -0.006090060000     2.756159680000     1.007825032230
      Gh(H)          -1.410455400000    -2.247231470000     0.000000000000     1.007825032230
      Gh(C)          -1.437379910000    -5.075048480000     2.940658910000    12.000000000000
      Gh(C)          -2.769007820000    -5.146099160000     5.135228800000    12.000000000000
      Gh(C)          -3.859550360000    -1.777281980000     3.210934110000    12.000000000000
         N          -24.421991580000    -6.178364020000   -20.877545400000    14.003074004430
         N          -26.556614080000    -6.320465380000   -17.292757570000    14.003074004430
         H          -28.689631930000    -2.887702590000   -17.792847610000     1.007825032230
         H          -26.029418110000    -2.714135930000   -22.186842630000     1.007825032230
         H          -23.971203570000    -9.240648280000   -18.328542760000     1.007825032230
         H          -27.304632390000    -6.999506870000   -15.572383090000     1.007825032230
         C          -27.277707880000    -4.171689850000   -18.513042000000    12.000000000000
         C          -25.946079970000    -4.100639170000   -20.707611890000    12.000000000000
         C          -24.855537440000    -7.469456360000   -18.783317200000    12.000000000000

  Running in c1 symmetry.

  Rotational constants: A =      0.02022  B =      0.00082  C =      0.00080 [cm^-1]
  Rotational constants: A =    606.16341  B =     24.70254  C =     23.95316 [MHz]
  Nuclear repulsion =  164.086695909478863

  Charge       = 0
  Multiplicity = 1
  Electrons    = 36
  Nalpha       = 18
  Nbeta        = 18

  ==> Algorithm <==

  SCF Algorithm Type is DF.
  DIIS enabled.
  MOM disabled.
  Fractional occupation disabled.
  Guess Type is SAD.
  Energy threshold   = 1.00e-10
  Density threshold  = 1.00e-10
  Integral threshold = 1.00e-12

  ==> Primary Basis <==

  Basis Set: AUG-CC-PVDZ
    Blend: AUG-CC-PVDZ
    Number of shells: 130
    Number of basis functions: 302
    Number of Cartesian functions: 322
    Spherical Harmonics?: true
    Max angular momentum: 2

   => Loading Basis Set <=

    Name: (AUG-CC-PVDZ AUX)
    Role: JKFIT
    Keyword: DF_BASIS_SCF
    atoms 1-2, 10-11 entry N          line   212 file /theoryfs2/ds/csargent/miniconda3/envs/cle/share/psi4/basis/aug-cc-pvdz-jkfit.gbs 
    atoms 3-6, 12-15 entry H          line    70 file /theoryfs2/ds/csargent/miniconda3/envs/cle/share/psi4/basis/aug-cc-pvdz-jkfit.gbs 
    atoms 7-9, 16-18 entry C          line   154 file /theoryfs2/ds/csargent/miniconda3/envs/cle/share/psi4/basis/aug-cc-pvdz-jkfit.gbs 

  ==> Integral Setup <==

  ==> DiskDFJK: Density-Fitted J/K Matrices <==

    J tasked:                  Yes
    K tasked:                  Yes
    wK tasked:                  No
    OpenMP threads:              6
    Integrals threads:           6
    Memory [MiB]:             5006
    Algorithm:                Core
    Integral Cache:           LOAD
    Schwarz Cutoff:          1E-12
    Fitting Condition:       1E-10

   => Auxiliary Basis Set <=

  Basis Set: (AUG-CC-PVDZ AUX)
    Blend: AUG-CC-PVDZ-JKFIT
    Number of shells: 376
    Number of basis functions: 1116
    Number of Cartesian functions: 1290
    Spherical Harmonics?: true
    Max angular momentum: 3

  Minimum eigenvalue in the overlap matrix is 2.1837059743E-05.
  Reciprocal condition number of the overlap matrix is 1.8394511022E-06.
    Using symmetric orthogonalization.

  ==> Pre-Iterations <==

  SCF Guess: Superposition of Atomic Densities via on-the-fly atomic UHF (no occupation information).

   -------------------------
    Irrep   Nso     Nmo    
   -------------------------
     A        302     302 
   -------------------------
    Total     302     302
   -------------------------

  ==> Iterations <==

                           Total Energy        Delta E     RMS |[F,P]|

   @DF-RHF iter SAD:  -224.55857168734039   -2.24559e+02   0.00000e+00 
   @DF-RHF iter   1:  -224.69806464926103   -1.39493e-01   1.63067e-03 DIIS
   @DF-RHF iter   2:  -224.80532026760446   -1.07256e-01   9.27384e-04 DIIS
   @DF-RHF iter   3:  -224.84168817162757   -3.63679e-02   1.74019e-04 DIIS
   @DF-RHF iter   4:  -224.84337342371492   -1.68525e-03   7.98972e-05 DIIS
   @DF-RHF iter   5:  -224.84367500443005   -3.01581e-04   1.26452e-05 DIIS
   @DF-RHF iter   6:  -224.84369234146263   -1.73370e-05   5.61871e-06 DIIS
   @DF-RHF iter   7:  -224.84369542953198   -3.08807e-06   2.19503e-06 DIIS
   @DF-RHF iter   8:  -224.84369616145003   -7.31918e-07   7.77587e-07 DIIS
   @DF-RHF iter   9:  -224.84369627224450   -1.10794e-07   1.87961e-07 DIIS
   @DF-RHF iter  10:  -224.84369627777997   -5.53547e-09   7.33125e-08 DIIS
   @DF-RHF iter  11:  -224.84369627860622   -8.26248e-10   3.26918e-08 DIIS
   @DF-RHF iter  12:  -224.84369627875793   -1.51715e-10   9.70884e-09 DIIS
   @DF-RHF iter  13:  -224.84369627877152   -1.35856e-11   3.58840e-09 DIIS
   @DF-RHF iter  14:  -224.84369627877311   -1.59162e-12   1.58275e-09 DIIS
   @DF-RHF iter  15:  -224.84369627877368   -5.68434e-13   5.27556e-10 DIIS
   @DF-RHF iter  16:  -224.84369627877359    8.52651e-14   2.34517e-10 DIIS
   @DF-RHF iter  17:  -224.84369627877379   -1.98952e-13   4.71137e-11 DIIS
  Energy and wave function converged.


  ==> Post-Iterations <==

    Orbital Energies [Eh]
    ---------------------

    Doubly Occupied:                                                      

       1A    -15.637071     2A    -15.551216     3A    -11.300916  
       4A    -11.263160     5A    -11.245653     6A     -1.352867  
       7A     -1.169098     8A     -1.012098     9A     -0.824390  
      10A     -0.803731    11A     -0.760666    12A     -0.610096  
      13A     -0.603958    14A     -0.601922    15A     -0.570942  
      16A     -0.435483    17A     -0.400464    18A     -0.320685  

    Virtual:                                                              

      19A      0.022433    20A      0.025388    21A      0.039960  
      22A      0.041580    23A      0.043505    24A      0.049997  
      25A      0.061864    26A      0.067709    27A      0.076339  
      28A      0.086016    29A      0.089096    30A      0.097439  
      31A      0.101397    32A      0.120831    33A      0.124494  
      34A      0.124827    35A      0.125577    36A      0.126664  
      37A      0.127157    38A      0.133472    39A      0.133772  
      40A      0.133917    41A      0.138031    42A      0.140942  
      43A      0.156500    44A      0.156559    45A      0.158699  
      46A      0.171988    47A      0.178189    48A      0.187224  
      49A      0.192155    50A      0.207669    51A      0.209216  
      52A      0.211559    53A      0.212260    54A      0.220075  
      55A      0.220268    56A      0.222376    57A      0.232359  
      58A      0.232984    59A      0.241408    60A      0.261605  
      61A      0.267803    62A      0.272047    63A      0.277911  
      64A      0.299179    65A      0.301746    66A      0.306302  
      67A      0.314442    68A      0.319102    69A      0.338197  
      70A      0.360005    71A      0.361488    72A      0.370745  
      73A      0.375389    74A      0.379800    75A      0.388291  
      76A      0.393288    77A      0.397097    78A      0.417031  
      79A      0.427274    80A      0.429000    81A      0.435113  
      82A      0.440189    83A      0.448951    84A      0.452059  
      85A      0.452073    86A      0.466350    87A      0.468058  
      88A      0.480893    89A      0.481229    90A      0.486283  
      91A      0.488151    92A      0.517199    93A      0.520497  
      94A      0.535858    95A      0.538187    96A      0.543006  
      97A      0.551710    98A      0.555750    99A      0.556382  
     100A      0.568280   101A      0.576474   102A      0.579328  
     103A      0.587438   104A      0.594249   105A      0.598939  
     106A      0.606301   107A      0.611923   108A      0.616080  
     109A      0.618247   110A      0.636538   111A      0.639647  
     112A      0.652504   113A      0.669282   114A      0.671337  
     115A      0.677547   116A      0.678185   117A      0.683650  
     118A      0.683874   119A      0.711033   120A      0.714698  
     121A      0.725758   122A      0.735973   123A      0.741238  
     124A      0.756044   125A      0.762698   126A      0.767400  
     127A      0.790929   128A      0.793606   129A      0.798132  
     130A      0.809747   131A      0.810367   132A      0.812362  
     133A      0.823157   134A      0.836446   135A      0.859498  
     136A      0.860398   137A      0.871425   138A      0.885765  
     139A      0.886429   140A      0.889823   141A      0.909632  
     142A      0.919525   143A      0.926777   144A      0.954351  
     145A      0.968629   146A      0.976964   147A      0.991692  
     148A      0.998360   149A      1.010706   150A      1.015328  
     151A      1.017404   152A      1.030676   153A      1.058897  
     154A      1.077353   155A      1.078532   156A      1.084552  
     157A      1.103553   158A      1.115930   159A      1.126983  
     160A      1.132421   161A      1.140497   162A      1.149565  
     163A      1.167170   164A      1.170773   165A      1.173959  
     166A      1.197457   167A      1.210501   168A      1.217445  
     169A      1.260721   170A      1.277901   171A      1.290544  
     172A      1.296867   173A      1.302539   174A      1.312460  
     175A      1.318025   176A      1.347466   177A      1.384053  
     178A      1.385028   179A      1.398145   180A      1.451143  
     181A      1.494843   182A      1.503288   183A      1.515754  
     184A      1.518410   185A      1.541273   186A      1.574127  
     187A      1.574285   188A      1.596381   189A      1.652159  
     190A      1.660862   191A      1.671505   192A      1.705286  
     193A      1.724477   194A      1.782643   195A      1.799067  
     196A      1.807063   197A      1.864950   198A      1.881477  
     199A      1.924391   200A      1.964987   201A      2.022005  
     202A      2.025429   203A      2.039606   204A      2.072981  
     205A      2.100998   206A      2.107054   207A      2.119381  
     208A      2.126759   209A      2.131318   210A      2.135965  
     211A      2.149439   212A      2.168670   213A      2.178815  
     214A      2.185046   215A      2.229732   216A      2.252700  
     217A      2.267082   218A      2.275963   219A      2.300924  
     220A      2.308638   221A      2.327139   222A      2.332072  
     223A      2.376822   224A      2.405743   225A      2.413395  
     226A      2.417758   227A      2.455770   228A      2.470856  
     229A      2.493969   230A      2.496919   231A      2.514025  
     232A      2.525895   233A      2.545345   234A      2.545464  
     235A      2.576913   236A      2.585743   237A      2.599901  
     238A      2.633765   239A      2.696329   240A      2.734093  
     241A      2.747025   242A      2.767089   243A      2.790432  
     244A      2.794149   245A      2.803444   246A      2.828903  
     247A      2.837641   248A      2.867213   249A      2.895842  
     250A      2.933367   251A      2.949539   252A      2.952738  
     253A      2.980862   254A      3.043623   255A      3.051201  
     256A      3.069910   257A      3.076312   258A      3.132041  
     259A      3.159759   260A      3.183044   261A      3.199163  
     262A      3.208795   263A      3.213481   264A      3.334816  
     265A      3.340986   266A      3.354572   267A      3.354891  
     268A      3.363027   269A      3.458823   270A      3.494541  
     271A      3.518552   272A      3.569798   273A      3.609002  
     274A      3.707404   275A      3.726872   276A      3.768294  
     277A      3.778546   278A      3.798388   279A      3.858097  
     280A      3.870865   281A      4.004021   282A      4.109022  
     283A      4.212936   284A      4.636887   285A      4.638954  
     286A      4.696102   287A      4.771969   288A      4.880256  
     289A      5.021572   290A      5.254805   291A      5.373335  
     292A      5.494954   293A      5.610540   294A      5.716482  
     295A      5.884084   296A      6.089920   297A      6.198317  
     298A     18.255628   299A     18.590294   300A     19.300589  
     301A     25.312024   302A     25.453496  

    Final Occupation by Irrep:
              A 
    DOCC [    18 ]

  @DF-RHF Final Energy:  -224.84369627877379

   => Energetics <=

    Nuclear Repulsion Energy =            164.0866959094788626
    One-Electron Energy =                -628.9319561370800784
    Two-Electron Energy =                 240.0015639488274246
    Total Energy =                       -224.8436962787737912

Computation Completed


Properties will be evaluated at   0.000000,   0.000000,   0.000000 [a0]

Properties computed using the SCF density matrix

  Nuclear Dipole Moment: [e a0]
     X:  -931.3211      Y:  -203.7845      Z:  -689.0966

  Electronic Dipole Moment: [e a0]
     X:   930.5173      Y:   203.6212      Z:   690.4290

  Dipole Moment: [e a0]
     X:    -0.8038      Y:    -0.1633      Z:     1.3324     Total:     1.5646

  Dipole Moment: [D]
     X:    -2.0431      Y:    -0.4150      Z:     3.3867     Total:     3.9769


*** tstop() called on ds1 at Tue Sep 14 18:20:01 2021
Module time:
	user time   =      16.20 seconds =       0.27 minutes
	system time =       0.30 seconds =       0.01 minutes
	total time  =          4 seconds =       0.07 minutes
Total time:
	user time   =      55.42 seconds =       0.92 minutes
	system time =       1.20 seconds =       0.02 minutes
	total time  =         12 seconds =       0.20 minutes
  Constructing Basis Sets for SAPT...

   => Loading Basis Set <=

    Name: (AUG-CC-PVDZ AUX)
    Role: RIFIT
    Keyword: DF_BASIS_SAPT
    atoms 1-2, 10-11 entry N          line   158 file /theoryfs2/ds/csargent/miniconda3/envs/cle/share/psi4/basis/aug-cc-pvdz-ri.gbs 
    atoms 3-6, 12-15 entry H          line    30 file /theoryfs2/ds/csargent/miniconda3/envs/cle/share/psi4/basis/aug-cc-pvdz-ri.gbs 
    atoms 7-9, 16-18 entry C          line   112 file /theoryfs2/ds/csargent/miniconda3/envs/cle/share/psi4/basis/aug-cc-pvdz-ri.gbs 


  //>>>>>>>>>>>>>>>>>>>>>>>>>>>>>>>>>>>//
  //               SAPT0               //
  //<<<<<<<<<<<<<<<<<<<<<<<<<<<<<<<<<<<//


*** tstart() called on ds1
*** at Tue Sep 14 18:20:01 2021

        SAPT0  
    Ed Hohenstein
     6 June 2009

      Orbital Information
  --------------------------
    NSO        =       302
    NMO        =       302
    NRI        =       904
    NOCC A     =        18
    NOCC B     =        18
    FOCC A     =         5
    FOCC B     =         5
    NVIR A     =       284
    NVIR B     =       284

    Elst10,r            =    -0.000076103709 [Eh]
    Exch10              =     0.000000000000 [Eh]
    Exch10 (S^2)        =     0.000000000000 [Eh]

    Iter     Energy [mEh]          dE [mEh]         Residual      Time [s]
       1      -0.00005878       0.000058775       0.084071294             0
       2      -0.00005402      -0.000004760       0.022012026             0
       3      -0.00005892       0.000004908       0.008867859             0
       4      -0.00006002       0.000001093       0.002218961             0
       5      -0.00005989      -0.000000125       0.000932722             1
       6      -0.00005983      -0.000000063       0.000326418             1
       7      -0.00005984       0.000000009       0.000135684             1
       8      -0.00005984       0.000000007       0.000053762             1
       9      -0.00005984      -0.000000000       0.000020346             1
      10      -0.00005984      -0.000000002       0.000004142             1
      11      -0.00005984       0.000000000       0.000001454             1
      12      -0.00005984       0.000000000       0.000000323             1

    CHF Iterations converged


    Iter     Energy [mEh]          dE [mEh]         Residual      Time [s]
       1      -0.00005878       0.000058775       0.084071294             1
       2      -0.00005402      -0.000004760       0.022012026             1
       3      -0.00005892       0.000004908       0.008867859             1
       4      -0.00006002       0.000001093       0.002218961             1
       5      -0.00005989      -0.000000125       0.000932722             1
       6      -0.00005983      -0.000000063       0.000326418             1
       7      -0.00005984       0.000000009       0.000135684             1
       8      -0.00005984       0.000000007       0.000053762             1
       9      -0.00005984      -0.000000000       0.000020346             2
      10      -0.00005984      -0.000000002       0.000004142             2
      11      -0.00005984       0.000000000       0.000001454             2
      12      -0.00005984       0.000000000       0.000000323             2

    CHF Iterations converged

    Ind20,r (A<-B)      =    -0.000000059843 [Eh]
    Ind20,r (B<-A)      =    -0.000000059843 [Eh]
    Ind20,r             =    -0.000000119686 [Eh]
    Exch-Ind20,r (A<-B) =     0.000000000000 [Eh]
    Exch-Ind20,r (B<-A) =     0.000000000000 [Eh]
    Exch-Ind20,r        =     0.000000000000 [Eh]
    Disp20              =    -0.000000908753 [Eh]
    Disp20 (SS)         =    -0.000000454377 [Eh]
    Disp20 (OS)         =    -0.000000454377 [Eh]
    Exch-Disp20         =     0.000000000000 [Eh]
    Exch-Disp20 (SS)    =     0.000000000000 [Eh]
    Exch-Disp20 (OS)    =     0.000000000000 [Eh]

    SAPT Results 
  --------------------------------------------------------------------------------------------------------
    Electrostatics                 -0.07610371 [mEh]      -0.04775580 [kcal/mol]      -0.19981026 [kJ/mol]
      Elst10,r                     -0.07610371 [mEh]      -0.04775580 [kcal/mol]      -0.19981026 [kJ/mol]

    Exchange                        0.00000000 [mEh]       0.00000000 [kcal/mol]       0.00000000 [kJ/mol]
      Exch10                        0.00000000 [mEh]       0.00000000 [kcal/mol]       0.00000000 [kJ/mol]
      Exch10(S^2)                   0.00000000 [mEh]       0.00000000 [kcal/mol]       0.00000000 [kJ/mol]

    Induction                      -0.00012834 [mEh]      -0.00008054 [kcal/mol]      -0.00033696 [kJ/mol]
      Ind20,r                      -0.00011969 [mEh]      -0.00007510 [kcal/mol]      -0.00031423 [kJ/mol]
      Exch-Ind20,r                  0.00000000 [mEh]       0.00000000 [kcal/mol]       0.00000000 [kJ/mol]
      delta HF,r (2)               -0.00000866 [mEh]      -0.00000543 [kcal/mol]      -0.00002273 [kJ/mol]

    Dispersion                     -0.00090875 [mEh]      -0.00057025 [kcal/mol]      -0.00238593 [kJ/mol]
      Disp20                       -0.00090875 [mEh]      -0.00057025 [kcal/mol]      -0.00238593 [kJ/mol]
      Exch-Disp20                   0.00000000 [mEh]       0.00000000 [kcal/mol]       0.00000000 [kJ/mol]
      Disp20 (SS)                  -0.00045438 [mEh]      -0.00028513 [kcal/mol]      -0.00119297 [kJ/mol]
      Disp20 (OS)                  -0.00045438 [mEh]      -0.00028513 [kcal/mol]      -0.00119297 [kJ/mol]
      Exch-Disp20 (SS)              0.00000000 [mEh]       0.00000000 [kcal/mol]       0.00000000 [kJ/mol]
      Exch-Disp20 (OS)              0.00000000 [mEh]       0.00000000 [kcal/mol]       0.00000000 [kJ/mol]

  Total HF                         -0.07623205 [mEh]      -0.04783633 [kcal/mol]      -0.20014723 [kJ/mol]
  Total SAPT0                      -0.07714081 [mEh]      -0.04840659 [kcal/mol]      -0.20253316 [kJ/mol]

  Special recipe for scaled SAPT0 (see Manual):
    Electrostatics sSAPT0          -0.07610371 [mEh]      -0.04775580 [kcal/mol]      -0.19981026 [kJ/mol]
    Exchange sSAPT0                 0.00000000 [mEh]       0.00000000 [kcal/mol]       0.00000000 [kJ/mol]
    Induction sSAPT0               -0.00012834 [mEh]      -0.00008054 [kcal/mol]      -0.00033696 [kJ/mol]
    Dispersion sSAPT0              -0.00090875 [mEh]      -0.00057025 [kcal/mol]      -0.00238593 [kJ/mol]
  Total sSAPT0                     -0.07714081 [mEh]      -0.04840659 [kcal/mol]      -0.20253316 [kJ/mol]
  --------------------------------------------------------------------------------------------------------

*** tstop() called on ds1 at Tue Sep 14 18:20:10 2021
Module time:
	user time   =      46.07 seconds =       0.77 minutes
	system time =       3.95 seconds =       0.07 minutes
	total time  =          9 seconds =       0.15 minutes
Total time:
	user time   =     102.35 seconds =       1.71 minutes
	system time =       5.17 seconds =       0.09 minutes
	total time  =         21 seconds =       0.35 minutes


Warning! sapt0 does not have an associated derived wavefunction.The returned wavefunction is the dimer SCF wavefunction.


    Psi4 stopped on: Tuesday, 14 September 2021 06:20PM
    Psi4 wall time for execution: 0:00:21.79

*** Psi4 exiting successfully. Buy a developer a beer!
