
    -----------------------------------------------------------------------
          Psi4: An Open-Source Ab Initio Electronic Structure Package
                               Psi4 1.4rc3 

                         Git: Rev {HEAD} 080dba6 


    D. G. A. Smith, L. A. Burns, A. C. Simmonett, R. M. Parrish,
    M. C. Schieber, R. Galvelis, P. Kraus, H. Kruse, R. Di Remigio,
    A. Alenaizan, A. M. James, S. Lehtola, J. P. Misiewicz, M. Scheurer,
    R. A. Shaw, J. B. Schriber, Y. Xie, Z. L. Glick, D. A. Sirianni,
    J. S. O'Brien, J. M. Waldrop, A. Kumar, E. G. Hohenstein,
    B. P. Pritchard, B. R. Brooks, H. F. Schaefer III, A. Yu. Sokolov,
    K. Patkowski, A. E. DePrince III, U. Bozkaya, R. A. King,
    F. A. Evangelista, J. M. Turney, T. D. Crawford, C. D. Sherrill,
    J. Chem. Phys. 152(18) 184108 (2020). https://doi.org/10.1063/5.0006002

                            Additional Code Authors
    E. T. Seidl, C. L. Janssen, E. F. Valeev, M. L. Leininger,
    J. F. Gonthier, R. M. Richard, H. R. McAlexander, M. Saitow, X. Wang,
    P. Verma, and M. H. Lechner

             Previous Authors, Complete List of Code Contributors,
                       and Citations for Specific Modules
    https://github.com/psi4/psi4/blob/master/codemeta.json
    https://github.com/psi4/psi4/graphs/contributors
    http://psicode.org/psi4manual/master/introduction.html#citing-psifour

    -----------------------------------------------------------------------


    Psi4 started on: Tuesday, 14 September 2021 05:18PM

    Process ID: 2761
    Host:       ds1
    PSIDATADIR: /theoryfs2/ds/csargent/miniconda3/envs/cle/share/psi4
    Memory:     500.0 MiB
    Threads:    6
    
  ==> Input File <==

--------------------------------------------------------------------------
# PSI4 file produced by CrystaLattE

# Generated from:               imidazole.xyz
# Psithon input for N-mer:      2mer-0+489
# Number of atoms per monomer:  [9, 9]
# Number of replicas:           2
# COM priority:                 1.563393761315e-05
# Minimum COM separations:      21.163 
# Separation priority:          2.185911372097e-05
# Minimum monomer separations:  18.926 
# Cutoff priority:              6.111906934252e-07
# Nuclear repulsion energy:     360.5238224797778

memory 7 GB

molecule Dimer_0_489 {
  N           -4.29309621      -3.06837431       5.30516231 
  N           -2.15847371      -2.92627296       1.72037448 
  H           -0.02545587      -6.35903575       2.22046452 
  H           -2.68566968      -6.53260241       6.61445954 
  H           -4.74388423      -0.00609006       2.75615968 
  H           -1.41045540      -2.24723147       0.00000000 
  C           -1.43737991      -5.07504848       2.94065891 
  C           -2.76900782      -5.14609916       5.13522880 
  C           -3.85955036      -1.77728198       3.21093411 
--
  N           34.20956213     -11.25341251      13.39723417 
  N           36.34418463     -11.39551386       9.81244634 
  H           38.47720247      -7.96275107      10.31253638 
  H           35.81698866      -7.78918441      14.70653140 
  H           33.75877412     -14.31569676      10.84823154 
  H           37.09220294     -12.07455535       8.09207186 
  C           37.06527843      -9.24673834      11.03273078 
  C           35.73365052      -9.17568766      13.22730066 
  C           34.64310798     -12.54450484      11.30300598 
units = au
no_com
no_reorient
}

set {
  e_convergence 10
  d_convergence 10
  scf_type df
  mp2_type df
  cc_type df
  freeze_core true
}

energy('sapt0/aug-cc-pvdz')

--------------------------------------------------------------------------

  Memory set to   6.519 GiB by Python driver.

Scratch directory: /scratch/csargent/psi4.31446.79897/

Scratch directory: /scratch/csargent/psi4.31446.79897/

  //>>>>>>>>>>>>>>>>>>>>>>>>>>>>>>>>>>>//
  //              Dimer HF             //
  //<<<<<<<<<<<<<<<<<<<<<<<<<<<<<<<<<<<//


*** tstart() called on ds1
*** at Tue Sep 14 17:18:48 2021

   => Loading Basis Set <=

    Name: AUG-CC-PVDZ
    Role: ORBITAL
    Keyword: BASIS
    atoms 1-2, 10-11 entry N          line   218 file /theoryfs2/ds/csargent/miniconda3/envs/cle/share/psi4/basis/aug-cc-pvdz.gbs 
    atoms 3-6, 12-15 entry H          line    40 file /theoryfs2/ds/csargent/miniconda3/envs/cle/share/psi4/basis/aug-cc-pvdz.gbs 
    atoms 7-9, 16-18 entry C          line   182 file /theoryfs2/ds/csargent/miniconda3/envs/cle/share/psi4/basis/aug-cc-pvdz.gbs 


         ---------------------------------------------------------
                                   SCF
               by Justin Turney, Rob Parrish, Andy Simmonett
                          and Daniel G. A. Smith
                              RHF Reference
                        6 Threads,   6675 MiB Core
         ---------------------------------------------------------

  ==> Geometry <==

    Molecular point group: c1
    Full point group: C1

    Geometry (in Bohr), charge = 0, multiplicity = 1:

       Center              X                  Y                   Z               Mass       
    ------------   -----------------  -----------------  -----------------  -----------------
         N           -4.293096210000    -3.068374310000     5.305162310000    14.003074004430
         N           -2.158473710000    -2.926272960000     1.720374480000    14.003074004430
         H           -0.025455870000    -6.359035750000     2.220464520000     1.007825032230
         H           -2.685669680000    -6.532602410000     6.614459540000     1.007825032230
         H           -4.743884230000    -0.006090060000     2.756159680000     1.007825032230
         H           -1.410455400000    -2.247231470000     0.000000000000     1.007825032230
         C           -1.437379910000    -5.075048480000     2.940658910000    12.000000000000
         C           -2.769007820000    -5.146099160000     5.135228800000    12.000000000000
         C           -3.859550360000    -1.777281980000     3.210934110000    12.000000000000
         N           34.209562130000   -11.253412510000    13.397234170000    14.003074004430
         N           36.344184630000   -11.395513860000     9.812446340000    14.003074004430
         H           38.477202470000    -7.962751070000    10.312536380000     1.007825032230
         H           35.816988660000    -7.789184410000    14.706531400000     1.007825032230
         H           33.758774120000   -14.315696760000    10.848231540000     1.007825032230
         H           37.092202940000   -12.074555350000     8.092071860000     1.007825032230
         C           37.065278430000    -9.246738340000    11.032730780000    12.000000000000
         C           35.733650520000    -9.175687660000    13.227300660000    12.000000000000
         C           34.643107980000   -12.544504840000    11.303005980000    12.000000000000

  Running in c1 symmetry.

  Rotational constants: A =      0.02060  B =      0.00058  C =      0.00057 [cm^-1]
  Rotational constants: A =    617.56054  B =     17.36461  C =     16.98106 [MHz]
  Nuclear repulsion =  360.523822675217275

  Charge       = 0
  Multiplicity = 1
  Electrons    = 72
  Nalpha       = 36
  Nbeta        = 36

  ==> Algorithm <==

  SCF Algorithm Type is DF.
  DIIS enabled.
  MOM disabled.
  Fractional occupation disabled.
  Guess Type is SAD.
  Energy threshold   = 1.00e-10
  Density threshold  = 1.00e-10
  Integral threshold = 1.00e-12

  ==> Primary Basis <==

  Basis Set: AUG-CC-PVDZ
    Blend: AUG-CC-PVDZ
    Number of shells: 130
    Number of basis functions: 302
    Number of Cartesian functions: 322
    Spherical Harmonics?: true
    Max angular momentum: 2

   => Loading Basis Set <=

    Name: (AUG-CC-PVDZ AUX)
    Role: JKFIT
    Keyword: DF_BASIS_SCF
    atoms 1-2, 10-11 entry N          line   212 file /theoryfs2/ds/csargent/miniconda3/envs/cle/share/psi4/basis/aug-cc-pvdz-jkfit.gbs 
    atoms 3-6, 12-15 entry H          line    70 file /theoryfs2/ds/csargent/miniconda3/envs/cle/share/psi4/basis/aug-cc-pvdz-jkfit.gbs 
    atoms 7-9, 16-18 entry C          line   154 file /theoryfs2/ds/csargent/miniconda3/envs/cle/share/psi4/basis/aug-cc-pvdz-jkfit.gbs 

  ==> Integral Setup <==

  ==> DiskDFJK: Density-Fitted J/K Matrices <==

    J tasked:                  Yes
    K tasked:                  Yes
    wK tasked:                  No
    OpenMP threads:              6
    Integrals threads:           6
    Memory [MiB]:             5006
    Algorithm:                Core
    Integral Cache:           SAVE
    Schwarz Cutoff:          1E-12
    Fitting Condition:       1E-10

   => Auxiliary Basis Set <=

  Basis Set: (AUG-CC-PVDZ AUX)
    Blend: AUG-CC-PVDZ-JKFIT
    Number of shells: 376
    Number of basis functions: 1116
    Number of Cartesian functions: 1290
    Spherical Harmonics?: true
    Max angular momentum: 3

  Minimum eigenvalue in the overlap matrix is 2.1837062715E-05.
  Reciprocal condition number of the overlap matrix is 1.8394513894E-06.
    Using symmetric orthogonalization.

  ==> Pre-Iterations <==

  SCF Guess: Superposition of Atomic Densities via on-the-fly atomic UHF (no occupation information).

   -------------------------
    Irrep   Nso     Nmo    
   -------------------------
     A        302     302 
   -------------------------
    Total     302     302
   -------------------------

  ==> Iterations <==

                           Total Energy        Delta E     RMS |[F,P]|

   @DF-RHF iter SAD:  -449.11714340212217   -4.49117e+02   0.00000e+00 
   @DF-RHF iter   1:  -449.39605274449963   -2.78909e-01   2.30631e-03 DIIS
   @DF-RHF iter   2:  -449.61056820793249   -2.14515e-01   1.31191e-03 DIIS
   @DF-RHF iter   3:  -449.68334961160326   -7.27814e-02   2.46223e-04 DIIS
   @DF-RHF iter   4:  -449.68672222839666   -3.37262e-03   1.13072e-04 DIIS
   @DF-RHF iter   5:  -449.68732625142223   -6.04023e-04   1.78845e-05 DIIS
   @DF-RHF iter   6:  -449.68736093421649   -3.46828e-05   7.94785e-06 DIIS
   @DF-RHF iter   7:  -449.68736711205020   -6.17783e-06   3.10503e-06 DIIS
   @DF-RHF iter   8:  -449.68736857607360   -1.46402e-06   1.09974e-06 DIIS
   @DF-RHF iter   9:  -449.68736879770449   -2.21631e-07   2.65730e-07 DIIS
   @DF-RHF iter  10:  -449.68736880878265   -1.10782e-08   1.03512e-07 DIIS
   @DF-RHF iter  11:  -449.68736881043105   -1.64840e-09   4.62509e-08 DIIS
   @DF-RHF iter  12:  -449.68736881073482   -3.03771e-10   1.37215e-08 DIIS
   @DF-RHF iter  13:  -449.68736881076148   -2.66596e-11   5.07456e-09 DIIS
   @DF-RHF iter  14:  -449.68736881076370   -2.21689e-12   2.23879e-09 DIIS
   @DF-RHF iter  15:  -449.68736881076524   -1.53477e-12   7.46215e-10 DIIS
   @DF-RHF iter  16:  -449.68736881076484    3.97904e-13   3.31940e-10 DIIS
   @DF-RHF iter  17:  -449.68736881076489   -5.68434e-14   6.72098e-11 DIIS
  Energy and wave function converged.


  ==> Post-Iterations <==

    Orbital Energies [Eh]
    ---------------------

    Doubly Occupied:                                                      

       1A    -15.637341     2A    -15.636698     3A    -15.551467  
       4A    -15.550828     5A    -11.301176     6A    -11.300535  
       7A    -11.263416     8A    -11.262764     9A    -11.245903  
      10A    -11.245251    11A     -1.353129    12A     -1.352484  
      13A     -1.169357    14A     -1.168714    15A     -1.012356  
      16A     -1.011708    17A     -0.824653    18A     -0.824010  
      19A     -0.803987    20A     -0.803340    21A     -0.760928  
      22A     -0.760284    23A     -0.610354    24A     -0.609709  
      25A     -0.604222    26A     -0.603576    27A     -0.602184  
      28A     -0.601536    29A     -0.571190    30A     -0.570543  
      31A     -0.435728    32A     -0.435091    33A     -0.400719  
      34A     -0.400076    35A     -0.320943    36A     -0.320292  

    Virtual:                                                              

      37A      0.025054    38A      0.025671    39A      0.041297  
      40A      0.041943    41A      0.049784    42A      0.050429  
      43A      0.061629    44A      0.062251    45A      0.088807  
      46A      0.089478    47A      0.101152    48A      0.101768  
      49A      0.120549    50A      0.121203    51A      0.125318  
      52A      0.125986    53A      0.133184    54A      0.133569  
      55A      0.133806    56A      0.134203    57A      0.140691  
      58A      0.141368    59A      0.156238    60A      0.156896  
      61A      0.158402    62A      0.159016    63A      0.171814  
      64A      0.172475    65A      0.177910    66A      0.178557  
      67A      0.186937    68A      0.187558    69A      0.211306  
      70A      0.211945    71A      0.219998    72A      0.220671  
      73A      0.232112    74A      0.232753    75A      0.241136  
      76A      0.241794    77A      0.261339    78A      0.261970  
      79A      0.267603    80A      0.268211    81A      0.277674  
      82A      0.278319    83A      0.301468    84A      0.302127  
      85A      0.314203    86A      0.314815    87A      0.337959  
      88A      0.338603    89A      0.361225    90A      0.361870  
      91A      0.370469    92A      0.371115    93A      0.379528  
      94A      0.380171    95A      0.388017    96A      0.388667  
      97A      0.396834    98A      0.397471    99A      0.416792  
     100A      0.417436   101A      0.428761   102A      0.429402  
     103A      0.451793   104A      0.452445   105A      0.466084  
     106A      0.466728   107A      0.480951   108A      0.481592  
     109A      0.486035   110A      0.486687   111A      0.487906  
     112A      0.488547   113A      0.551441   114A      0.552093  
     115A      0.556118   116A      0.556767   117A      0.568019  
     118A      0.568662   119A      0.576210   120A      0.576844  
     121A      0.593978   122A      0.594622   123A      0.598672  
     124A      0.599319   125A      0.615832   126A      0.616485  
     127A      0.636281   128A      0.636935   129A      0.652254  
     130A      0.652899   131A      0.669032   132A      0.669672  
     133A      0.671080   134A      0.671733   135A      0.677913  
     136A      0.678553   137A      0.683626   138A      0.684280  
     139A      0.714435   140A      0.715081   141A      0.725490  
     142A      0.726131   143A      0.740986   144A      0.741630  
     145A      0.762448   146A      0.763094   147A      0.767143  
     148A      0.767787   149A      0.790668   150A      0.791314  
     151A      0.793343   152A      0.793982   153A      0.809482  
     154A      0.810126   155A      0.860140   156A      0.860785  
     157A      0.871166   158A      0.871817   159A      0.885516  
     160A      0.886157   161A      0.889571   162A      0.890231  
     163A      0.954089   164A      0.954741   165A      0.976697  
     166A      0.977338   167A      0.998107   168A      0.998745  
     169A      1.010459   170A      1.011096   171A      1.017149  
     172A      1.017803   173A      1.030415   174A      1.031058  
     175A      1.077102   176A      1.077741   177A      1.084289  
     178A      1.084932   179A      1.126729   180A      1.127376  
     181A      1.140248   182A      1.140892   183A      1.149305  
     184A      1.149951   185A      1.166918   186A      1.167561  
     187A      1.217193   188A      1.217838   189A      1.260458  
     190A      1.261106   191A      1.302290   192A      1.302941  
     193A      1.384760   194A      1.385400   195A      1.397894  
     196A      1.398536   197A      1.450886   198A      1.451527  
     199A      1.503035   200A      1.503677   201A      1.518146  
     202A      1.518795   203A      1.573870   204A      1.574038  
     205A      1.574522   206A      1.574684   207A      1.596120  
     208A      1.596769   209A      1.651900   210A      1.652547  
     211A      1.671256   212A      1.671908   213A      1.705030  
     214A      1.705687   215A      1.724214   216A      1.724854  
     217A      1.782383   218A      1.783035   219A      1.798813  
     220A      1.799464   221A      1.806816   222A      1.807471  
     223A      1.864695   224A      1.865339   225A      1.881214  
     226A      1.881852   227A      1.924132   228A      1.924775  
     229A      1.964726   230A      1.965369   231A      2.021740  
     232A      2.022386   233A      2.025166   234A      2.025811  
     235A      2.072721   236A      2.073367   237A      2.106797  
     238A      2.107444   239A      2.126506   240A      2.127156  
     241A      2.135710   242A      2.136360   243A      2.168412  
     244A      2.169059   245A      2.178552   246A      2.179198  
     247A      2.266821   248A      2.267465   249A      2.275705  
     250A      2.276346   251A      2.300660   252A      2.301301  
     253A      2.331811   254A      2.332453   255A      2.417501  
     256A      2.418152   257A      2.496648   258A      2.497289  
     259A      2.513769   260A      2.514414   261A      2.545070  
     262A      2.545708   263A      2.585485   264A      2.586131  
     265A      2.633509   266A      2.634156   267A      2.733841  
     268A      2.734492   269A      2.746767   270A      2.747409  
     271A      2.766831   272A      2.767479   273A      2.793890  
     274A      2.794534   275A      2.803187   276A      2.803831  
     277A      2.837376   278A      2.838019   279A      2.866951  
     280A      2.867592   281A      2.952476   282A      2.953120  
     283A      2.980606   284A      2.981248   285A      3.050945  
     286A      3.051593   287A      3.069654   288A      3.070300  
     289A      3.198902   290A      3.199543   291A      3.208537  
     292A      3.209181   293A      3.334554   294A      3.335195  
     295A      3.354315   296A      3.354959   297A      3.518295  
     298A      3.518940   299A      3.768038   300A      3.768681  
     301A      4.108761   302A      4.109410  

    Final Occupation by Irrep:
              A 
    DOCC [    36 ]

  @DF-RHF Final Energy:  -449.68736881076489

   => Energetics <=

    Nuclear Repulsion Energy =            360.5238226752172750
    One-Electron Energy =               -1322.5693946646510994
    Two-Electron Energy =                 512.3582031786688731
    Total Energy =                       -449.6873688107649514

Computation Completed


Properties will be evaluated at   0.000000,   0.000000,   0.000000 [a0]

Properties computed using the SCF density matrix

  Nuclear Dipole Moment: [e a0]
     X:  1181.2515      Y:  -515.5843      Z:   548.2961

  Electronic Dipole Moment: [e a0]
     X: -1179.6433      Y:   515.5840      Z:  -550.9587

  Dipole Moment: [e a0]
     X:     1.6082      Y:    -0.0003      Z:    -2.6626     Total:     3.1106

  Dipole Moment: [D]
     X:     4.0877      Y:    -0.0007      Z:    -6.7675     Total:     7.9063


*** tstop() called on ds1 at Tue Sep 14 17:18:53 2021
Module time:
	user time   =      22.14 seconds =       0.37 minutes
	system time =       0.61 seconds =       0.01 minutes
	total time  =          5 seconds =       0.08 minutes
Total time:
	user time   =      22.14 seconds =       0.37 minutes
	system time =       0.61 seconds =       0.01 minutes
	total time  =          5 seconds =       0.08 minutes

  //>>>>>>>>>>>>>>>>>>>>>>>>>>>>>>>>>>>//
  //            Monomer A HF           //
  //<<<<<<<<<<<<<<<<<<<<<<<<<<<<<<<<<<<//


*** tstart() called on ds1
*** at Tue Sep 14 17:18:53 2021

   => Loading Basis Set <=

    Name: AUG-CC-PVDZ
    Role: ORBITAL
    Keyword: BASIS
    atoms 1-2, 10-11 entry N          line   218 file /theoryfs2/ds/csargent/miniconda3/envs/cle/share/psi4/basis/aug-cc-pvdz.gbs 
    atoms 3-6, 12-15 entry H          line    40 file /theoryfs2/ds/csargent/miniconda3/envs/cle/share/psi4/basis/aug-cc-pvdz.gbs 
    atoms 7-9, 16-18 entry C          line   182 file /theoryfs2/ds/csargent/miniconda3/envs/cle/share/psi4/basis/aug-cc-pvdz.gbs 


         ---------------------------------------------------------
                                   SCF
               by Justin Turney, Rob Parrish, Andy Simmonett
                          and Daniel G. A. Smith
                              RHF Reference
                        6 Threads,   6675 MiB Core
         ---------------------------------------------------------

  ==> Geometry <==

    Molecular point group: c1
    Full point group: C1

    Geometry (in Bohr), charge = 0, multiplicity = 1:

       Center              X                  Y                   Z               Mass       
    ------------   -----------------  -----------------  -----------------  -----------------
         N           -4.293096210000    -3.068374310000     5.305162310000    14.003074004430
         N           -2.158473710000    -2.926272960000     1.720374480000    14.003074004430
         H           -0.025455870000    -6.359035750000     2.220464520000     1.007825032230
         H           -2.685669680000    -6.532602410000     6.614459540000     1.007825032230
         H           -4.743884230000    -0.006090060000     2.756159680000     1.007825032230
         H           -1.410455400000    -2.247231470000     0.000000000000     1.007825032230
         C           -1.437379910000    -5.075048480000     2.940658910000    12.000000000000
         C           -2.769007820000    -5.146099160000     5.135228800000    12.000000000000
         C           -3.859550360000    -1.777281980000     3.210934110000    12.000000000000
      Gh(N)          34.209562130000   -11.253412510000    13.397234170000    14.003074004430
      Gh(N)          36.344184630000   -11.395513860000     9.812446340000    14.003074004430
      Gh(H)          38.477202470000    -7.962751070000    10.312536380000     1.007825032230
      Gh(H)          35.816988660000    -7.789184410000    14.706531400000     1.007825032230
      Gh(H)          33.758774120000   -14.315696760000    10.848231540000     1.007825032230
      Gh(H)          37.092202940000   -12.074555350000     8.092071860000     1.007825032230
      Gh(C)          37.065278430000    -9.246738340000    11.032730780000    12.000000000000
      Gh(C)          35.733650520000    -9.175687660000    13.227300660000    12.000000000000
      Gh(C)          34.643107980000   -12.544504840000    11.303005980000    12.000000000000

  Running in c1 symmetry.

  Rotational constants: A =      0.02060  B =      0.00058  C =      0.00057 [cm^-1]
  Rotational constants: A =    617.56054  B =     17.36461  C =     16.98106 [MHz]
  Nuclear repulsion =  164.086695994184396

  Charge       = 0
  Multiplicity = 1
  Electrons    = 36
  Nalpha       = 18
  Nbeta        = 18

  ==> Algorithm <==

  SCF Algorithm Type is DF.
  DIIS enabled.
  MOM disabled.
  Fractional occupation disabled.
  Guess Type is SAD.
  Energy threshold   = 1.00e-10
  Density threshold  = 1.00e-10
  Integral threshold = 1.00e-12

  ==> Primary Basis <==

  Basis Set: AUG-CC-PVDZ
    Blend: AUG-CC-PVDZ
    Number of shells: 130
    Number of basis functions: 302
    Number of Cartesian functions: 322
    Spherical Harmonics?: true
    Max angular momentum: 2

   => Loading Basis Set <=

    Name: (AUG-CC-PVDZ AUX)
    Role: JKFIT
    Keyword: DF_BASIS_SCF
    atoms 1-2, 10-11 entry N          line   212 file /theoryfs2/ds/csargent/miniconda3/envs/cle/share/psi4/basis/aug-cc-pvdz-jkfit.gbs 
    atoms 3-6, 12-15 entry H          line    70 file /theoryfs2/ds/csargent/miniconda3/envs/cle/share/psi4/basis/aug-cc-pvdz-jkfit.gbs 
    atoms 7-9, 16-18 entry C          line   154 file /theoryfs2/ds/csargent/miniconda3/envs/cle/share/psi4/basis/aug-cc-pvdz-jkfit.gbs 

  ==> Integral Setup <==

  ==> DiskDFJK: Density-Fitted J/K Matrices <==

    J tasked:                  Yes
    K tasked:                  Yes
    wK tasked:                  No
    OpenMP threads:              6
    Integrals threads:           6
    Memory [MiB]:             5006
    Algorithm:                Core
    Integral Cache:           LOAD
    Schwarz Cutoff:          1E-12
    Fitting Condition:       1E-10

   => Auxiliary Basis Set <=

  Basis Set: (AUG-CC-PVDZ AUX)
    Blend: AUG-CC-PVDZ-JKFIT
    Number of shells: 376
    Number of basis functions: 1116
    Number of Cartesian functions: 1290
    Spherical Harmonics?: true
    Max angular momentum: 3

  Minimum eigenvalue in the overlap matrix is 2.1837062715E-05.
  Reciprocal condition number of the overlap matrix is 1.8394513894E-06.
    Using symmetric orthogonalization.

  ==> Pre-Iterations <==

  SCF Guess: Superposition of Atomic Densities via on-the-fly atomic UHF (no occupation information).

   -------------------------
    Irrep   Nso     Nmo    
   -------------------------
     A        302     302 
   -------------------------
    Total     302     302
   -------------------------

  ==> Iterations <==

                           Total Energy        Delta E     RMS |[F,P]|

   @DF-RHF iter SAD:  -224.55857169559818   -2.24559e+02   0.00000e+00 
   @DF-RHF iter   1:  -224.69806464843984   -1.39493e-01   1.63067e-03 DIIS
   @DF-RHF iter   2:  -224.80532026689565   -1.07256e-01   9.27384e-04 DIIS
   @DF-RHF iter   3:  -224.84168817085396   -3.63679e-02   1.74019e-04 DIIS
   @DF-RHF iter   4:  -224.84337342292798   -1.68525e-03   7.98972e-05 DIIS
   @DF-RHF iter   5:  -224.84367500364201   -3.01581e-04   1.26452e-05 DIIS
   @DF-RHF iter   6:  -224.84369234067557   -1.73370e-05   5.61871e-06 DIIS
   @DF-RHF iter   7:  -224.84369542874526   -3.08807e-06   2.19503e-06 DIIS
   @DF-RHF iter   8:  -224.84369616066391   -7.31919e-07   7.77587e-07 DIIS
   @DF-RHF iter   9:  -224.84369627145787   -1.10794e-07   1.87961e-07 DIIS
   @DF-RHF iter  10:  -224.84369627699394   -5.53607e-09   7.33125e-08 DIIS
   @DF-RHF iter  11:  -224.84369627782016   -8.26219e-10   3.26918e-08 DIIS
   @DF-RHF iter  12:  -224.84369627797193   -1.51772e-10   9.70884e-09 DIIS
   @DF-RHF iter  13:  -224.84369627798512   -1.31877e-11   3.58840e-09 DIIS
   @DF-RHF iter  14:  -224.84369627798705   -1.93268e-12   1.58275e-09 DIIS
   @DF-RHF iter  15:  -224.84369627798731   -2.55795e-13   5.27556e-10 DIIS
   @DF-RHF iter  16:  -224.84369627798731    0.00000e+00   2.34516e-10 DIIS
   @DF-RHF iter  17:  -224.84369627798722    8.52651e-14   4.71135e-11 DIIS
  Energy and wave function converged.


  ==> Post-Iterations <==

    Orbital Energies [Eh]
    ---------------------

    Doubly Occupied:                                                      

       1A    -15.637071     2A    -15.551216     3A    -11.300916  
       4A    -11.263160     5A    -11.245653     6A     -1.352867  
       7A     -1.169098     8A     -1.012098     9A     -0.824390  
      10A     -0.803731    11A     -0.760666    12A     -0.610096  
      13A     -0.603958    14A     -0.601922    15A     -0.570942  
      16A     -0.435483    17A     -0.400464    18A     -0.320685  

    Virtual:                                                              

      19A      0.022410    20A      0.025388    21A      0.039952  
      22A      0.041580    23A      0.043445    24A      0.049997  
      25A      0.061864    26A      0.067517    27A      0.076364  
      28A      0.086059    29A      0.089096    30A      0.097409  
      31A      0.101397    32A      0.120831    33A      0.124431  
      34A      0.124900    35A      0.125577    36A      0.126709  
      37A      0.127106    38A      0.133472    39A      0.133773  
      40A      0.133941    41A      0.137973    42A      0.140942  
      43A      0.156500    44A      0.156592    45A      0.158699  
      46A      0.171988    47A      0.178189    48A      0.187224  
      49A      0.191987    50A      0.207572    51A      0.209229  
      52A      0.211559    53A      0.212402    54A      0.220173  
      55A      0.220268    56A      0.222443    57A      0.232359  
      58A      0.232944    59A      0.241408    60A      0.261605  
      61A      0.267803    62A      0.271979    63A      0.277911  
      64A      0.299270    65A      0.301746    66A      0.306309  
      67A      0.314442    68A      0.319098    69A      0.338197  
      70A      0.360028    71A      0.361488    72A      0.370745  
      73A      0.375360    74A      0.379800    75A      0.388291  
      76A      0.393293    77A      0.397097    78A      0.417031  
      79A      0.427279    80A      0.429000    81A      0.435041  
      82A      0.440258    83A      0.448873    84A      0.451970  
      85A      0.452059    86A      0.466350    87A      0.467988  
      88A      0.480912    89A      0.481229    90A      0.486283  
      91A      0.488151    92A      0.517220    93A      0.520434  
      94A      0.535844    95A      0.538080    96A      0.543002  
      97A      0.551710    98A      0.555696    99A      0.556382  
     100A      0.568280   101A      0.576474   102A      0.579223  
     103A      0.587427   104A      0.594249   105A      0.598939  
     106A      0.606336   107A      0.611928   108A      0.616080  
     109A      0.618204   110A      0.636538   111A      0.639638  
     112A      0.652504   113A      0.669282   114A      0.671337  
     115A      0.677513   116A      0.678185   117A      0.683664  
     118A      0.683874   119A      0.711090   120A      0.714698  
     121A      0.725758   122A      0.735989   123A      0.741238  
     124A      0.755993   125A      0.762698   126A      0.767400  
     127A      0.790929   128A      0.793606   129A      0.798101  
     130A      0.809747   131A      0.810352   132A      0.812342  
     133A      0.823150   134A      0.836504   135A      0.859504  
     136A      0.860398   137A      0.871425   138A      0.885765  
     139A      0.886448   140A      0.889823   141A      0.909630  
     142A      0.919542   143A      0.926803   144A      0.954351  
     145A      0.968627   146A      0.976964   147A      0.991726  
     148A      0.998360   149A      1.010706   150A      1.015340  
     151A      1.017404   152A      1.030676   153A      1.058908  
     154A      1.077353   155A      1.078496   156A      1.084552  
     157A      1.103554   158A      1.115900   159A      1.126983  
     160A      1.132344   161A      1.140497   162A      1.149565  
     163A      1.167170   164A      1.170792   165A      1.173962  
     166A      1.197458   167A      1.210474   168A      1.217445  
     169A      1.260721   170A      1.277949   171A      1.290553  
     172A      1.296910   173A      1.302539   174A      1.312466  
     175A      1.318009   176A      1.347496   177A      1.383991  
     178A      1.385028   179A      1.398145   180A      1.451143  
     181A      1.494826   182A      1.503288   183A      1.515744  
     184A      1.518410   185A      1.541249   186A      1.574127  
     187A      1.574285   188A      1.596381   189A      1.652159  
     190A      1.660850   191A      1.671505   192A      1.705286  
     193A      1.724477   194A      1.782643   195A      1.799067  
     196A      1.807063   197A      1.864950   198A      1.881477  
     199A      1.924391   200A      1.964987   201A      2.022005  
     202A      2.025429   203A      2.039622   204A      2.072981  
     205A      2.101000   206A      2.107054   207A      2.119382  
     208A      2.126759   209A      2.131326   210A      2.135965  
     211A      2.149443   212A      2.168670   213A      2.178815  
     214A      2.185070   215A      2.229684   216A      2.252728  
     217A      2.267082   218A      2.275963   219A      2.300924  
     220A      2.308641   221A      2.327158   222A      2.332072  
     223A      2.376826   224A      2.405556   225A      2.413357  
     226A      2.417758   227A      2.455741   228A      2.470832  
     229A      2.493927   230A      2.496919   231A      2.514025  
     232A      2.525879   233A      2.545345   234A      2.545501  
     235A      2.576901   236A      2.585743   237A      2.599911  
     238A      2.633765   239A      2.696250   240A      2.734093  
     241A      2.747025   242A      2.767089   243A      2.790430  
     244A      2.794149   245A      2.803444   246A      2.828931  
     247A      2.837641   248A      2.867213   249A      2.895879  
     250A      2.933351   251A      2.949487   252A      2.952738  
     253A      2.980862   254A      3.043614   255A      3.051201  
     256A      3.069910   257A      3.076299   258A      3.132010  
     259A      3.159751   260A      3.183085   261A      3.199163  
     262A      3.208795   263A      3.213523   264A      3.334816  
     265A      3.340971   266A      3.354572   267A      3.354877  
     268A      3.363017   269A      3.458787   270A      3.494615  
     271A      3.518552   272A      3.569696   273A      3.609091  
     274A      3.707369   275A      3.726860   276A      3.768294  
     277A      3.778518   278A      3.798310   279A      3.858084  
     280A      3.870876   281A      4.004038   282A      4.109022  
     283A      4.212898   284A      4.636897   285A      4.638971  
     286A      4.696135   287A      4.771954   288A      4.880220  
     289A      5.021574   290A      5.254862   291A      5.373353  
     292A      5.495012   293A      5.610533   294A      5.716425  
     295A      5.884086   296A      6.089830   297A      6.198330  
     298A     18.255643   299A     18.590295   300A     19.300603  
     301A     25.312130   302A     25.453400  

    Final Occupation by Irrep:
              A 
    DOCC [    18 ]

  @DF-RHF Final Energy:  -224.84369627798722

   => Energetics <=

    Nuclear Repulsion Energy =            164.0866959941843959
    One-Electron Energy =                -628.9319562990677923
    Two-Electron Energy =                 240.0015640268961477
    Total Energy =                       -224.8436962779872204

Computation Completed


Properties will be evaluated at   0.000000,   0.000000,   0.000000 [a0]

Properties computed using the SCF density matrix

  Nuclear Dipole Moment: [e a0]
     X:  -102.4221      Y:  -129.0981      Z:   128.4908

  Electronic Dipole Moment: [e a0]
     X:   103.2259      Y:   129.2613      Z:  -129.8232

  Dipole Moment: [e a0]
     X:     0.8038      Y:     0.1633      Z:    -1.3324     Total:     1.5646

  Dipole Moment: [D]
     X:     2.0431      Y:     0.4150      Z:    -3.3867     Total:     3.9769


*** tstop() called on ds1 at Tue Sep 14 17:18:56 2021
Module time:
	user time   =      15.91 seconds =       0.27 minutes
	system time =       0.38 seconds =       0.01 minutes
	total time  =          3 seconds =       0.05 minutes
Total time:
	user time   =      38.21 seconds =       0.64 minutes
	system time =       1.00 seconds =       0.02 minutes
	total time  =          8 seconds =       0.13 minutes

  //>>>>>>>>>>>>>>>>>>>>>>>>>>>>>>>>>>>//
  //            Monomer B HF           //
  //<<<<<<<<<<<<<<<<<<<<<<<<<<<<<<<<<<<//


*** tstart() called on ds1
*** at Tue Sep 14 17:18:56 2021

   => Loading Basis Set <=

    Name: AUG-CC-PVDZ
    Role: ORBITAL
    Keyword: BASIS
    atoms 1-2, 10-11 entry N          line   218 file /theoryfs2/ds/csargent/miniconda3/envs/cle/share/psi4/basis/aug-cc-pvdz.gbs 
    atoms 3-6, 12-15 entry H          line    40 file /theoryfs2/ds/csargent/miniconda3/envs/cle/share/psi4/basis/aug-cc-pvdz.gbs 
    atoms 7-9, 16-18 entry C          line   182 file /theoryfs2/ds/csargent/miniconda3/envs/cle/share/psi4/basis/aug-cc-pvdz.gbs 


         ---------------------------------------------------------
                                   SCF
               by Justin Turney, Rob Parrish, Andy Simmonett
                          and Daniel G. A. Smith
                              RHF Reference
                        6 Threads,   6675 MiB Core
         ---------------------------------------------------------

  ==> Geometry <==

    Molecular point group: c1
    Full point group: C1

    Geometry (in Bohr), charge = 0, multiplicity = 1:

       Center              X                  Y                   Z               Mass       
    ------------   -----------------  -----------------  -----------------  -----------------
      Gh(N)          -4.293096210000    -3.068374310000     5.305162310000    14.003074004430
      Gh(N)          -2.158473710000    -2.926272960000     1.720374480000    14.003074004430
      Gh(H)          -0.025455870000    -6.359035750000     2.220464520000     1.007825032230
      Gh(H)          -2.685669680000    -6.532602410000     6.614459540000     1.007825032230
      Gh(H)          -4.743884230000    -0.006090060000     2.756159680000     1.007825032230
      Gh(H)          -1.410455400000    -2.247231470000     0.000000000000     1.007825032230
      Gh(C)          -1.437379910000    -5.075048480000     2.940658910000    12.000000000000
      Gh(C)          -2.769007820000    -5.146099160000     5.135228800000    12.000000000000
      Gh(C)          -3.859550360000    -1.777281980000     3.210934110000    12.000000000000
         N           34.209562130000   -11.253412510000    13.397234170000    14.003074004430
         N           36.344184630000   -11.395513860000     9.812446340000    14.003074004430
         H           38.477202470000    -7.962751070000    10.312536380000     1.007825032230
         H           35.816988660000    -7.789184410000    14.706531400000     1.007825032230
         H           33.758774120000   -14.315696760000    10.848231540000     1.007825032230
         H           37.092202940000   -12.074555350000     8.092071860000     1.007825032230
         C           37.065278430000    -9.246738340000    11.032730780000    12.000000000000
         C           35.733650520000    -9.175687660000    13.227300660000    12.000000000000
         C           34.643107980000   -12.544504840000    11.303005980000    12.000000000000

  Running in c1 symmetry.

  Rotational constants: A =      0.02060  B =      0.00058  C =      0.00057 [cm^-1]
  Rotational constants: A =    617.56054  B =     17.36461  C =     16.98106 [MHz]
  Nuclear repulsion =  164.086696054074054

  Charge       = 0
  Multiplicity = 1
  Electrons    = 36
  Nalpha       = 18
  Nbeta        = 18

  ==> Algorithm <==

  SCF Algorithm Type is DF.
  DIIS enabled.
  MOM disabled.
  Fractional occupation disabled.
  Guess Type is SAD.
  Energy threshold   = 1.00e-10
  Density threshold  = 1.00e-10
  Integral threshold = 1.00e-12

  ==> Primary Basis <==

  Basis Set: AUG-CC-PVDZ
    Blend: AUG-CC-PVDZ
    Number of shells: 130
    Number of basis functions: 302
    Number of Cartesian functions: 322
    Spherical Harmonics?: true
    Max angular momentum: 2

   => Loading Basis Set <=

    Name: (AUG-CC-PVDZ AUX)
    Role: JKFIT
    Keyword: DF_BASIS_SCF
    atoms 1-2, 10-11 entry N          line   212 file /theoryfs2/ds/csargent/miniconda3/envs/cle/share/psi4/basis/aug-cc-pvdz-jkfit.gbs 
    atoms 3-6, 12-15 entry H          line    70 file /theoryfs2/ds/csargent/miniconda3/envs/cle/share/psi4/basis/aug-cc-pvdz-jkfit.gbs 
    atoms 7-9, 16-18 entry C          line   154 file /theoryfs2/ds/csargent/miniconda3/envs/cle/share/psi4/basis/aug-cc-pvdz-jkfit.gbs 

  ==> Integral Setup <==

  ==> DiskDFJK: Density-Fitted J/K Matrices <==

    J tasked:                  Yes
    K tasked:                  Yes
    wK tasked:                  No
    OpenMP threads:              6
    Integrals threads:           6
    Memory [MiB]:             5006
    Algorithm:                Core
    Integral Cache:           LOAD
    Schwarz Cutoff:          1E-12
    Fitting Condition:       1E-10

   => Auxiliary Basis Set <=

  Basis Set: (AUG-CC-PVDZ AUX)
    Blend: AUG-CC-PVDZ-JKFIT
    Number of shells: 376
    Number of basis functions: 1116
    Number of Cartesian functions: 1290
    Spherical Harmonics?: true
    Max angular momentum: 3

  Minimum eigenvalue in the overlap matrix is 2.1837062715E-05.
  Reciprocal condition number of the overlap matrix is 1.8394513894E-06.
    Using symmetric orthogonalization.

  ==> Pre-Iterations <==

  SCF Guess: Superposition of Atomic Densities via on-the-fly atomic UHF (no occupation information).

   -------------------------
    Irrep   Nso     Nmo    
   -------------------------
     A        302     302 
   -------------------------
    Total     302     302
   -------------------------

  ==> Iterations <==

                           Total Energy        Delta E     RMS |[F,P]|

   @DF-RHF iter SAD:  -224.55857170111756   -2.24559e+02   0.00000e+00 
   @DF-RHF iter   1:  -224.69806464835307   -1.39493e-01   1.63067e-03 DIIS
   @DF-RHF iter   2:  -224.80532026737731   -1.07256e-01   9.27384e-04 DIIS
   @DF-RHF iter   3:  -224.84168817151260   -3.63679e-02   1.74019e-04 DIIS
   @DF-RHF iter   4:  -224.84337342359694   -1.68525e-03   7.98972e-05 DIIS
   @DF-RHF iter   5:  -224.84367500431216   -3.01581e-04   1.26452e-05 DIIS
   @DF-RHF iter   6:  -224.84369234134655   -1.73370e-05   5.61871e-06 DIIS
   @DF-RHF iter   7:  -224.84369542941590   -3.08807e-06   2.19503e-06 DIIS
   @DF-RHF iter   8:  -224.84369616133458   -7.31919e-07   7.77587e-07 DIIS
   @DF-RHF iter   9:  -224.84369627212826   -1.10794e-07   1.87961e-07 DIIS
   @DF-RHF iter  10:  -224.84369627766415   -5.53590e-09   7.33125e-08 DIIS
   @DF-RHF iter  11:  -224.84369627849080   -8.26645e-10   3.26918e-08 DIIS
   @DF-RHF iter  12:  -224.84369627864271   -1.51914e-10   9.70884e-09 DIIS
   @DF-RHF iter  13:  -224.84369627865536   -1.26477e-11   3.58840e-09 DIIS
   @DF-RHF iter  14:  -224.84369627865738   -2.01794e-12   1.58275e-09 DIIS
   @DF-RHF iter  15:  -224.84369627865766   -2.84217e-13   5.27556e-10 DIIS
   @DF-RHF iter  16:  -224.84369627865792   -2.55795e-13   2.34517e-10 DIIS
   @DF-RHF iter  17:  -224.84369627865809   -1.70530e-13   4.71135e-11 DIIS
  Energy and wave function converged.


  ==> Post-Iterations <==

    Orbital Energies [Eh]
    ---------------------

    Doubly Occupied:                                                      

       1A    -15.637071     2A    -15.551216     3A    -11.300916  
       4A    -11.263160     5A    -11.245653     6A     -1.352867  
       7A     -1.169098     8A     -1.012098     9A     -0.824390  
      10A     -0.803731    11A     -0.760666    12A     -0.610096  
      13A     -0.603958    14A     -0.601922    15A     -0.570942  
      16A     -0.435483    17A     -0.400464    18A     -0.320685  

    Virtual:                                                              

      19A      0.023057    20A      0.025388    21A      0.040595  
      22A      0.041580    23A      0.044067    24A      0.049997  
      25A      0.061865    26A      0.068125    27A      0.077040  
      28A      0.086705    29A      0.089096    30A      0.098017  
      31A      0.101397    32A      0.120831    33A      0.125092  
      34A      0.125563    35A      0.125577    36A      0.127371  
      37A      0.127744    38A      0.133472    39A      0.133773  
      40A      0.134590    41A      0.138606    42A      0.140942  
      43A      0.156500    44A      0.157239    45A      0.158699  
      46A      0.171988    47A      0.178189    48A      0.187224  
      49A      0.192608    50A      0.208232    51A      0.209884  
      52A      0.211559    53A      0.213042    54A      0.220268  
      55A      0.220807    56A      0.223078    57A      0.232359  
      58A      0.233579    59A      0.241408    60A      0.261605  
      61A      0.267803    62A      0.272603    63A      0.277911  
      64A      0.299891    65A      0.301746    66A      0.306943  
      67A      0.314442    68A      0.319748    69A      0.338197  
      70A      0.360670    71A      0.361488    72A      0.370745  
      73A      0.376014    74A      0.379800    75A      0.388291  
      76A      0.393943    77A      0.397097    78A      0.417031  
      79A      0.427928    80A      0.429000    81A      0.435703  
      82A      0.440916    83A      0.449519    84A      0.452059  
      85A      0.452615    86A      0.466350    87A      0.468638  
      88A      0.481229    89A      0.481555    90A      0.486283  
      91A      0.488151    92A      0.517864    93A      0.521071  
      94A      0.536474    95A      0.538732    96A      0.543648  
      97A      0.551710    98A      0.556328    99A      0.556382  
     100A      0.568280   101A      0.576474   102A      0.579856  
     103A      0.588075   104A      0.594249   105A      0.598939  
     106A      0.606991   107A      0.612559   108A      0.616080  
     109A      0.618845   110A      0.636538   111A      0.640296  
     112A      0.652504   113A      0.669282   114A      0.671337  
     115A      0.678151   116A      0.678185   117A      0.683874  
     118A      0.684311   119A      0.711730   120A      0.714698  
     121A      0.725758   122A      0.736647   123A      0.741238  
     124A      0.756637   125A      0.762698   126A      0.767400  
     127A      0.790929   128A      0.793606   129A      0.798751  
     130A      0.809747   131A      0.811002   132A      0.812968  
     133A      0.823811   134A      0.837161   135A      0.860157  
     136A      0.860398   137A      0.871425   138A      0.885765  
     139A      0.887086   140A      0.889823   141A      0.910276  
     142A      0.920190   143A      0.927449   144A      0.954351  
     145A      0.969267   146A      0.976964   147A      0.992371  
     148A      0.998360   149A      1.010706   150A      1.015989  
     151A      1.017404   152A      1.030676   153A      1.059557  
     154A      1.077353   155A      1.079145   156A      1.084552  
     157A      1.104199   158A      1.116551   159A      1.126983  
     160A      1.132992   161A      1.140497   162A      1.149565  
     163A      1.167170   164A      1.171438   165A      1.174607  
     166A      1.198101   167A      1.211119   168A      1.217445  
     169A      1.260721   170A      1.278582   171A      1.291192  
     172A      1.297549   173A      1.302539   174A      1.313107  
     175A      1.318651   176A      1.348133   177A      1.384635  
     178A      1.385028   179A      1.398145   180A      1.451143  
     181A      1.495464   182A      1.503288   183A      1.516385  
     184A      1.518410   185A      1.541893   186A      1.574127  
     187A      1.574285   188A      1.596381   189A      1.652159  
     190A      1.661494   191A      1.671505   192A      1.705286  
     193A      1.724477   194A      1.782643   195A      1.799067  
     196A      1.807063   197A      1.864950   198A      1.881477  
     199A      1.924391   200A      1.964987   201A      2.022005  
     202A      2.025429   203A      2.040277   204A      2.072981  
     205A      2.101645   206A      2.107054   207A      2.120019  
     208A      2.126759   209A      2.131982   210A      2.135965  
     211A      2.150100   212A      2.168670   213A      2.178815  
     214A      2.185740   215A      2.230334   216A      2.253380  
     217A      2.267082   218A      2.275963   219A      2.300924  
     220A      2.309302   221A      2.327799   222A      2.332072  
     223A      2.377464   224A      2.406194   225A      2.414016  
     226A      2.417758   227A      2.456399   228A      2.471477  
     229A      2.494577   230A      2.496919   231A      2.514025  
     232A      2.526520   233A      2.545345   234A      2.546150  
     235A      2.577555   236A      2.585743   237A      2.600566  
     238A      2.633765   239A      2.696903   240A      2.734093  
     241A      2.747025   242A      2.767089   243A      2.791066  
     244A      2.794149   245A      2.803444   246A      2.829590  
     247A      2.837641   248A      2.867213   249A      2.896512  
     250A      2.934012   251A      2.950138   252A      2.952738  
     253A      2.980862   254A      3.044252   255A      3.051201  
     256A      3.069910   257A      3.076945   258A      3.132644  
     259A      3.160394   260A      3.183734   261A      3.199163  
     262A      3.208795   263A      3.214168   264A      3.334816  
     265A      3.341620   266A      3.354572   267A      3.355518  
     268A      3.363673   269A      3.459429   270A      3.495251  
     271A      3.518552   272A      3.570341   273A      3.609729  
     274A      3.708012   275A      3.727506   276A      3.768294  
     277A      3.779163   278A      3.798953   279A      3.858735  
     280A      3.871515   281A      4.004679   282A      4.109022  
     283A      4.213536   284A      4.637545   285A      4.639617  
     286A      4.696783   287A      4.772596   288A      4.880865  
     289A      5.022221   290A      5.255501   291A      5.374000  
     292A      5.495654   293A      5.611186   294A      5.717071  
     295A      5.884728   296A      6.090474   297A      6.198969  
     298A     18.256306   299A     18.590927   300A     19.301265  
     301A     25.312762   302A     25.454043  

    Final Occupation by Irrep:
              A 
    DOCC [    18 ]

  @DF-RHF Final Energy:  -224.84369627865809

   => Energetics <=

    Nuclear Repulsion Energy =            164.0866960540740536
    One-Electron Energy =                -628.9319564224598480
    Two-Electron Energy =                 240.0015640897276796
    Total Energy =                       -224.8436962786580864

Computation Completed


Properties will be evaluated at   0.000000,   0.000000,   0.000000 [a0]

Properties computed using the SCF density matrix

  Nuclear Dipole Moment: [e a0]
     X:  1283.6736      Y:  -386.4863      Z:   419.8054

  Electronic Dipole Moment: [e a0]
     X: -1282.8698      Y:   386.3230      Z:  -421.1378

  Dipole Moment: [e a0]
     X:     0.8038      Y:    -0.1633      Z:    -1.3324     Total:     1.5646

  Dipole Moment: [D]
     X:     2.0431      Y:    -0.4150      Z:    -3.3867     Total:     3.9769


*** tstop() called on ds1 at Tue Sep 14 17:19:00 2021
Module time:
	user time   =      15.83 seconds =       0.26 minutes
	system time =       0.32 seconds =       0.01 minutes
	total time  =          4 seconds =       0.07 minutes
Total time:
	user time   =      54.19 seconds =       0.90 minutes
	system time =       1.32 seconds =       0.02 minutes
	total time  =         12 seconds =       0.20 minutes
  Constructing Basis Sets for SAPT...

   => Loading Basis Set <=

    Name: (AUG-CC-PVDZ AUX)
    Role: RIFIT
    Keyword: DF_BASIS_SAPT
    atoms 1-2, 10-11 entry N          line   158 file /theoryfs2/ds/csargent/miniconda3/envs/cle/share/psi4/basis/aug-cc-pvdz-ri.gbs 
    atoms 3-6, 12-15 entry H          line    30 file /theoryfs2/ds/csargent/miniconda3/envs/cle/share/psi4/basis/aug-cc-pvdz-ri.gbs 
    atoms 7-9, 16-18 entry C          line   112 file /theoryfs2/ds/csargent/miniconda3/envs/cle/share/psi4/basis/aug-cc-pvdz-ri.gbs 


  //>>>>>>>>>>>>>>>>>>>>>>>>>>>>>>>>>>>//
  //               SAPT0               //
  //<<<<<<<<<<<<<<<<<<<<<<<<<<<<<<<<<<<//


*** tstart() called on ds1
*** at Tue Sep 14 17:19:00 2021

        SAPT0  
    Ed Hohenstein
     6 June 2009

      Orbital Information
  --------------------------
    NSO        =       302
    NMO        =       302
    NRI        =       904
    NOCC A     =        18
    NOCC B     =        18
    FOCC A     =         5
    FOCC B     =         5
    NVIR A     =       284
    NVIR B     =       284

    Elst10,r            =     0.000023771775 [Eh]
    Exch10              =     0.000000000000 [Eh]
    Exch10 (S^2)        =     0.000000000000 [Eh]

    Iter     Energy [mEh]          dE [mEh]         Residual      Time [s]
       1      -0.00002045       0.000020448       0.044345026             0
       2      -0.00001904      -0.000001404       0.012167030             0
       3      -0.00002044       0.000001400       0.005551274             0
       4      -0.00002094       0.000000496       0.001146549             0
       5      -0.00002092      -0.000000023       0.000550327             0
       6      -0.00002089      -0.000000030       0.000149477             1
       7      -0.00002089       0.000000002       0.000053664             1
       8      -0.00002089       0.000000002       0.000022905             1
       9      -0.00002089       0.000000000       0.000007678             1
      10      -0.00002089      -0.000000000       0.000001768             1
      11      -0.00002089       0.000000000       0.000000604             1

    CHF Iterations converged


    Iter     Energy [mEh]          dE [mEh]         Residual      Time [s]
       1      -0.00001353       0.000013533       0.039902793             0
       2      -0.00001235      -0.000001180       0.010285014             0
       3      -0.00001329       0.000000932       0.004498672             1
       4      -0.00001361       0.000000323       0.000908833             1
       5      -0.00001358      -0.000000032       0.000387304             1
       6      -0.00001357      -0.000000011       0.000118126             1
       7      -0.00001357       0.000000001       0.000039507             1
       8      -0.00001357       0.000000001       0.000015615             1
       9      -0.00001357       0.000000000       0.000005898             1
      10      -0.00001357      -0.000000000       0.000001295             1
      11      -0.00001357       0.000000000       0.000000284             2

    CHF Iterations converged

    Ind20,r (A<-B)      =    -0.000000020892 [Eh]
    Ind20,r (B<-A)      =    -0.000000013568 [Eh]
    Ind20,r             =    -0.000000034460 [Eh]
    Exch-Ind20,r (A<-B) =     0.000000000000 [Eh]
    Exch-Ind20,r (B<-A) =     0.000000000000 [Eh]
    Exch-Ind20,r        =     0.000000000000 [Eh]
    Disp20              =    -0.000000278126 [Eh]
    Disp20 (SS)         =    -0.000000139063 [Eh]
    Disp20 (OS)         =    -0.000000139063 [Eh]
    Exch-Disp20         =     0.000000000000 [Eh]
    Exch-Disp20 (SS)    =     0.000000000000 [Eh]
    Exch-Disp20 (OS)    =     0.000000000000 [Eh]

    SAPT Results 
  --------------------------------------------------------------------------------------------------------
    Electrostatics                  0.02377178 [mEh]       0.01491701 [kcal/mol]       0.06241279 [kJ/mol]
      Elst10,r                      0.02377178 [mEh]       0.01491701 [kcal/mol]       0.06241279 [kJ/mol]

    Exchange                        0.00000000 [mEh]       0.00000000 [kcal/mol]       0.00000000 [kJ/mol]
      Exch10                        0.00000000 [mEh]       0.00000000 [kcal/mol]       0.00000000 [kJ/mol]
      Exch10(S^2)                   0.00000000 [mEh]       0.00000000 [kcal/mol]       0.00000000 [kJ/mol]

    Induction                      -0.00002589 [mEh]      -0.00001625 [kcal/mol]      -0.00006799 [kJ/mol]
      Ind20,r                      -0.00003446 [mEh]      -0.00002162 [kcal/mol]      -0.00009047 [kJ/mol]
      Exch-Ind20,r                  0.00000000 [mEh]       0.00000000 [kcal/mol]       0.00000000 [kJ/mol]
      delta HF,r (2)                0.00000856 [mEh]       0.00000537 [kcal/mol]       0.00002249 [kJ/mol]

    Dispersion                     -0.00027813 [mEh]      -0.00017453 [kcal/mol]      -0.00073022 [kJ/mol]
      Disp20                       -0.00027813 [mEh]      -0.00017453 [kcal/mol]      -0.00073022 [kJ/mol]
      Exch-Disp20                   0.00000000 [mEh]       0.00000000 [kcal/mol]       0.00000000 [kJ/mol]
      Disp20 (SS)                  -0.00013906 [mEh]      -0.00008726 [kcal/mol]      -0.00036511 [kJ/mol]
      Disp20 (OS)                  -0.00013906 [mEh]      -0.00008726 [kcal/mol]      -0.00036511 [kJ/mol]
      Exch-Disp20 (SS)              0.00000000 [mEh]       0.00000000 [kcal/mol]       0.00000000 [kJ/mol]
      Exch-Disp20 (OS)              0.00000000 [mEh]       0.00000000 [kcal/mol]       0.00000000 [kJ/mol]

  Total HF                          0.02374588 [mEh]       0.01490076 [kcal/mol]       0.06234480 [kJ/mol]
  Total SAPT0                       0.02346775 [mEh]       0.01472624 [kcal/mol]       0.06161458 [kJ/mol]

  Special recipe for scaled SAPT0 (see Manual):
    Electrostatics sSAPT0           0.02377178 [mEh]       0.01491701 [kcal/mol]       0.06241279 [kJ/mol]
    Exchange sSAPT0                 0.00000000 [mEh]       0.00000000 [kcal/mol]       0.00000000 [kJ/mol]
    Induction sSAPT0               -0.00002589 [mEh]      -0.00001625 [kcal/mol]      -0.00006799 [kJ/mol]
    Dispersion sSAPT0              -0.00027813 [mEh]      -0.00017453 [kcal/mol]      -0.00073022 [kJ/mol]
  Total sSAPT0                      0.02346775 [mEh]       0.01472624 [kcal/mol]       0.06161458 [kJ/mol]
  --------------------------------------------------------------------------------------------------------

*** tstop() called on ds1 at Tue Sep 14 17:19:09 2021
Module time:
	user time   =      43.57 seconds =       0.73 minutes
	system time =       3.76 seconds =       0.06 minutes
	total time  =          9 seconds =       0.15 minutes
Total time:
	user time   =      98.31 seconds =       1.64 minutes
	system time =       5.11 seconds =       0.09 minutes
	total time  =         21 seconds =       0.35 minutes


Warning! sapt0 does not have an associated derived wavefunction.The returned wavefunction is the dimer SCF wavefunction.


    Psi4 stopped on: Tuesday, 14 September 2021 05:19PM
    Psi4 wall time for execution: 0:00:21.21

*** Psi4 exiting successfully. Buy a developer a beer!
