
    -----------------------------------------------------------------------
          Psi4: An Open-Source Ab Initio Electronic Structure Package
                               Psi4 1.4rc3

                         Git: Rev {HEAD} 080dba6


    D. G. A. Smith, L. A. Burns, A. C. Simmonett, R. M. Parrish,
    M. C. Schieber, R. Galvelis, P. Kraus, H. Kruse, R. Di Remigio,
    A. Alenaizan, A. M. James, S. Lehtola, J. P. Misiewicz, M. Scheurer,
    R. A. Shaw, J. B. Schriber, Y. Xie, Z. L. Glick, D. A. Sirianni,
    J. S. O'Brien, J. M. Waldrop, A. Kumar, E. G. Hohenstein,
    B. P. Pritchard, B. R. Brooks, H. F. Schaefer III, A. Yu. Sokolov,
    K. Patkowski, A. E. DePrince III, U. Bozkaya, R. A. King,
    F. A. Evangelista, J. M. Turney, T. D. Crawford, C. D. Sherrill,
    J. Chem. Phys. 152(18) 184108 (2020). https://doi.org/10.1063/5.0006002

                            Additional Code Authors
    E. T. Seidl, C. L. Janssen, E. F. Valeev, M. L. Leininger,
    J. F. Gonthier, R. M. Richard, H. R. McAlexander, M. Saitow, X. Wang,
    P. Verma, and M. H. Lechner

             Previous Authors, Complete List of Code Contributors,
                       and Citations for Specific Modules
    https://github.com/psi4/psi4/blob/master/codemeta.json
    https://github.com/psi4/psi4/graphs/contributors
    http://psicode.org/psi4manual/master/introduction.html#citing-psifour

    -----------------------------------------------------------------------


    Psi4 started on: Tuesday, 14 September 2021 06:20PM

    Process ID: 5552
    Host:       ds1
    PSIDATADIR: /theoryfs2/ds/csargent/miniconda3/envs/cle/share/psi4
    Memory:     500.0 MiB
    Threads:    6

  ==> Input File <==

--------------------------------------------------------------------------
# PSI4 file produced by CrystaLattE

# Generated from:               imidazole.xyz
# Psithon input for N-mer:      2mer-0+103
# Number of atoms per monomer:  [9, 9]
# Number of replicas:           1
# COM priority:                 3.978285600183e-05
# Minimum COM separations:      15.501
# Separation priority:          9.679811375167e-05
# Minimum monomer separations:  11.525
# Cutoff priority:              4.444496065378e-06
# Nuclear repulsion energy:     372.5194330135399

memory 7 GB

molecule Dimer_0_103 {
  N           -4.29309621      -3.06837431       5.30516231
  N           -2.15847371      -2.92627296       1.72037448
  H           -0.02545587      -6.35903575       2.22046452
  H           -2.68566968      -6.53260241       6.61445954
  H           -4.74388423      -0.00609006       2.75615968
  H           -1.41045540      -2.24723147       0.00000000
  C           -1.43737991      -5.07504848       2.94065891
  C           -2.76900782      -5.14609916       5.13522880
  C           -3.85955036      -1.77728198       3.21093411
--
  N           -4.72980061      24.27192687      -4.69340168
  N           -6.86442311      24.12982552      -1.10861384
  H           -8.99744096      27.56258831      -1.60870389
  H           -6.33722715      27.73615497      -6.00269891
  H           -4.27901260      21.20964262      -2.14439904
  H           -7.61244142      23.45078403       0.61176063
  C           -7.58551691      26.27860104      -2.32889828
  C           -6.25388901      26.34965172      -4.52346817
  C           -5.16334647      22.98083454      -2.59917348
units = au
no_com
no_reorient
}

set {
  e_convergence 10
  d_convergence 10
  scf_type df
  mp2_type df
  cc_type df
  freeze_core true
}

energy('sapt0/aug-cc-pvdz')

--------------------------------------------------------------------------

  Memory set to   6.519 GiB by Python driver.

Scratch directory: /scratch/csargent/psi4.31446.79897/

Scratch directory: /scratch/csargent/psi4.31446.79897/

  //>>>>>>>>>>>>>>>>>>>>>>>>>>>>>>>>>>>//
  //              Dimer HF             //
  //<<<<<<<<<<<<<<<<<<<<<<<<<<<<<<<<<<<//


*** tstart() called on ds1
*** at Tue Sep 14 18:20:12 2021

   => Loading Basis Set <=

    Name: AUG-CC-PVDZ
    Role: ORBITAL
    Keyword: BASIS
    atoms 1-2, 10-11 entry N          line   218 file /theoryfs2/ds/csargent/miniconda3/envs/cle/share/psi4/basis/aug-cc-pvdz.gbs
    atoms 3-6, 12-15 entry H          line    40 file /theoryfs2/ds/csargent/miniconda3/envs/cle/share/psi4/basis/aug-cc-pvdz.gbs
    atoms 7-9, 16-18 entry C          line   182 file /theoryfs2/ds/csargent/miniconda3/envs/cle/share/psi4/basis/aug-cc-pvdz.gbs


         ---------------------------------------------------------
                                   SCF
               by Justin Turney, Rob Parrish, Andy Simmonett
                          and Daniel G. A. Smith
                              RHF Reference
                        6 Threads,   6675 MiB Core
         ---------------------------------------------------------

  ==> Geometry <==

    Molecular point group: c1
    Full point group: C1

    Geometry (in Bohr), charge = 0, multiplicity = 1:

       Center              X                  Y                   Z               Mass
    ------------   -----------------  -----------------  -----------------  -----------------
         N           -4.293096210000    -3.068374310000     5.305162310000    14.003074004430
         N           -2.158473710000    -2.926272960000     1.720374480000    14.003074004430
         H           -0.025455870000    -6.359035750000     2.220464520000     1.007825032230
         H           -2.685669680000    -6.532602410000     6.614459540000     1.007825032230
         H           -4.743884230000    -0.006090060000     2.756159680000     1.007825032230
         H           -1.410455400000    -2.247231470000     0.000000000000     1.007825032230
         C           -1.437379910000    -5.075048480000     2.940658910000    12.000000000000
         C           -2.769007820000    -5.146099160000     5.135228800000    12.000000000000
         C           -3.859550360000    -1.777281980000     3.210934110000    12.000000000000
         N           -4.729800610000    24.271926870000    -4.693401680000    14.003074004430
         N           -6.864423110000    24.129825520000    -1.108613840000    14.003074004430
         H           -8.997440960000    27.562588310000    -1.608703890000     1.007825032230
         H           -6.337227150000    27.736154970000    -6.002698910000     1.007825032230
         H           -4.279012600000    21.209642620000    -2.144399040000     1.007825032230
         H           -7.612441420000    23.450784030000     0.611760630000     1.007825032230
         C           -7.585516910000    26.278601040000    -2.328898280000    12.000000000000
         C           -6.253889010000    26.349651720000    -4.523468170000    12.000000000000
         C           -5.163346470000    22.980834540000    -2.599173480000    12.000000000000

  Running in c1 symmetry.

  Rotational constants: A =      0.02990  B =      0.00131  C =      0.00126 [cm^-1]
  Rotational constants: A =    896.50072  B =     39.19007  C =     37.62905 [MHz]
  Nuclear repulsion =  372.519433074559913

  Charge       = 0
  Multiplicity = 1
  Electrons    = 72
  Nalpha       = 36
  Nbeta        = 36

  ==> Algorithm <==

  SCF Algorithm Type is DF.
  DIIS enabled.
  MOM disabled.
  Fractional occupation disabled.
  Guess Type is SAD.
  Energy threshold   = 1.00e-10
  Density threshold  = 1.00e-10
  Integral threshold = 1.00e-12

  ==> Primary Basis <==

  Basis Set: AUG-CC-PVDZ
    Blend: AUG-CC-PVDZ
    Number of shells: 130
    Number of basis functions: 302
    Number of Cartesian functions: 322
    Spherical Harmonics?: true
    Max angular momentum: 2

   => Loading Basis Set <=

    Name: (AUG-CC-PVDZ AUX)
    Role: JKFIT
    Keyword: DF_BASIS_SCF
    atoms 1-2, 10-11 entry N          line   212 file /theoryfs2/ds/csargent/miniconda3/envs/cle/share/psi4/basis/aug-cc-pvdz-jkfit.gbs
    atoms 3-6, 12-15 entry H          line    70 file /theoryfs2/ds/csargent/miniconda3/envs/cle/share/psi4/basis/aug-cc-pvdz-jkfit.gbs
    atoms 7-9, 16-18 entry C          line   154 file /theoryfs2/ds/csargent/miniconda3/envs/cle/share/psi4/basis/aug-cc-pvdz-jkfit.gbs

  ==> Integral Setup <==

  ==> DiskDFJK: Density-Fitted J/K Matrices <==

    J tasked:                  Yes
    K tasked:                  Yes
    wK tasked:                  No
    OpenMP threads:              6
    Integrals threads:           6
    Memory [MiB]:             5006
    Algorithm:                Core
    Integral Cache:           SAVE
    Schwarz Cutoff:          1E-12
    Fitting Condition:       1E-10

   => Auxiliary Basis Set <=

  Basis Set: (AUG-CC-PVDZ AUX)
    Blend: AUG-CC-PVDZ-JKFIT
    Number of shells: 376
    Number of basis functions: 1116
    Number of Cartesian functions: 1290
    Spherical Harmonics?: true
    Max angular momentum: 3

  Minimum eigenvalue in the overlap matrix is 2.1830962896E-05.
  Reciprocal condition number of the overlap matrix is 1.8389320853E-06.
    Using symmetric orthogonalization.

  ==> Pre-Iterations <==

  SCF Guess: Superposition of Atomic Densities via on-the-fly atomic UHF (no occupation information).

   -------------------------
    Irrep   Nso     Nmo
   -------------------------
     A        302     302
   -------------------------
    Total     302     302
   -------------------------

  ==> Iterations <==

                           Total Energy        Delta E     RMS |[F,P]|

   @DF-RHF iter SAD:  -449.11714339583693   -4.49117e+02   0.00000e+00
   @DF-RHF iter   1:  -449.39633034199903   -2.79187e-01   2.30572e-03 DIIS
   @DF-RHF iter   2:  -449.61080161935928   -2.14471e-01   1.31094e-03 DIIS
   @DF-RHF iter   3:  -449.68346444384611   -7.26628e-02   2.45837e-04 DIIS
   @DF-RHF iter   4:  -449.68683065925376   -3.36622e-03   1.12807e-04 DIIS
   @DF-RHF iter   5:  -449.68743179154285   -6.01132e-04   1.78776e-05 DIIS
   @DF-RHF iter   6:  -449.68746642513111   -3.46336e-05   7.94410e-06 DIIS
   @DF-RHF iter   7:  -449.68747259719589   -6.17206e-06   3.10503e-06 DIIS
   @DF-RHF iter   8:  -449.68747406287139   -1.46568e-06   1.10021e-06 DIIS
   @DF-RHF iter   9:  -449.68747428480003   -2.21929e-07   2.67103e-07 DIIS
   @DF-RHF iter  10:  -449.68747429589860   -1.10986e-08   1.05044e-07 DIIS
   @DF-RHF iter  11:  -449.68747429758702   -1.68842e-09   4.62319e-08 DIIS
   @DF-RHF iter  12:  -449.68747429789369   -3.06670e-10   1.38199e-08 DIIS
   @DF-RHF iter  13:  -449.68747429792035   -2.66596e-11   5.08822e-09 DIIS
   @DF-RHF iter  14:  -449.68747429792398   -3.63798e-12   2.24582e-09 DIIS
   @DF-RHF iter  15:  -449.68747429792404   -5.68434e-14   7.47416e-10 DIIS
   @DF-RHF iter  16:  -449.68747429792433   -2.84217e-13   3.31867e-10 DIIS
   @DF-RHF iter  17:  -449.68747429792478   -4.54747e-13   6.64818e-11 DIIS
  Energy and wave function converged.


  ==> Post-Iterations <==

    Orbital Energies [Eh]
    ---------------------

    Doubly Occupied:

       1A    -15.637648     2A    -15.637648     3A    -15.551878
       4A    -15.551878     5A    -11.301564     6A    -11.301564
       7A    -11.263729     8A    -11.263729     9A    -11.246226
      10A    -11.246226    11A     -1.353466    12A     -1.353466
      13A     -1.169712    14A     -1.169712    15A     -1.012694
      16A     -1.012694    17A     -0.824983    18A     -0.824983
      19A     -0.804322    20A     -0.804322    21A     -0.761275
      22A     -0.761275    23A     -0.610693    24A     -0.610693
      25A     -0.604554    26A     -0.604554    27A     -0.602492
      28A     -0.602492    29A     -0.571566    30A     -0.571566
      31A     -0.436153    32A     -0.436153    33A     -0.401081
      34A     -0.401081    35A     -0.321277    36A     -0.321277

    Virtual:

      37A      0.024838    38A      0.025260    39A      0.039696
      40A      0.042073    41A      0.048986    42A      0.049793
      43A      0.060760    44A      0.061860    45A      0.088433
      46A      0.088440    47A      0.100627    48A      0.100661
      49A      0.120159    50A      0.120235    51A      0.125090
      52A      0.125101    53A      0.133086    54A      0.133117
      55A      0.133188    56A      0.133213    57A      0.140307
      58A      0.140344    59A      0.154009    60A      0.156064
      61A      0.156141    62A      0.161699    63A      0.171340
      64A      0.171645    65A      0.177619    66A      0.177629
      67A      0.185659    68A      0.187910    69A      0.210873
      70A      0.210874    71A      0.219658    72A      0.219687
      73A      0.231711    74A      0.231764    75A      0.240857
      76A      0.240861    77A      0.261000    78A      0.261092
      79A      0.266932    80A      0.267159    81A      0.277192
      82A      0.277196    83A      0.301074    84A      0.301196
      85A      0.313575    86A      0.313749    87A      0.337639
      88A      0.337646    89A      0.360914    90A      0.361061
      91A      0.370190    92A      0.370220    93A      0.379215
      94A      0.379347    95A      0.387174    96A      0.388152
      97A      0.395892    98A      0.397215    99A      0.414180
     100A      0.419102   101A      0.428328   102A      0.428386
     103A      0.451387   104A      0.451441   105A      0.465749
     106A      0.465751   107A      0.480641   108A      0.480681
     109A      0.485688   110A      0.485771   111A      0.487453
     112A      0.487655   113A      0.551093   114A      0.551109
     115A      0.555355   116A      0.556357   117A      0.567582
     118A      0.567786   119A      0.575795   120A      0.575883
     121A      0.593530   122A      0.593891   123A      0.598176
     124A      0.598682   125A      0.615458   126A      0.615467
     127A      0.635979   128A      0.636008   129A      0.651856
     130A      0.651889   131A      0.668671   132A      0.668680
     133A      0.670743   134A      0.670748   135A      0.677597
     136A      0.677608   137A      0.683312   138A      0.683322
     139A      0.714127   140A      0.714127   141A      0.725200
     142A      0.725209   143A      0.740620   144A      0.740625
     145A      0.761987   146A      0.762156   147A      0.766773
     148A      0.766783   149A      0.790349   150A      0.790367
     151A      0.792924   152A      0.792940   153A      0.809018
     154A      0.809341   155A      0.859615   156A      0.860018
     157A      0.870639   158A      0.871064   159A      0.885101
     160A      0.885173   161A      0.889289   162A      0.889289
     163A      0.953748   164A      0.953755   165A      0.976336
     166A      0.976413   167A      0.997588   168A      0.997906
     169A      1.010042   170A      1.010065   171A      1.016803
     172A      1.016808   173A      1.030047   174A      1.030053
     175A      1.076466   176A      1.076949   177A      1.083893
     178A      1.083975   179A      1.126152   180A      1.126638
     181A      1.139603   182A      1.140194   183A      1.148951
     184A      1.148989   185A      1.166085   186A      1.167127
     187A      1.216806   188A      1.216813   189A      1.260139
     190A      1.260186   191A      1.301879   192A      1.301999
     193A      1.384328   194A      1.384555   195A      1.397423
     196A      1.397591   197A      1.450522   198A      1.450532
     199A      1.502478   200A      1.502863   201A      1.517819
     202A      1.517826   203A      1.573433   204A      1.573606
     205A      1.573673   206A      1.573762   207A      1.595178
     208A      1.596508   209A      1.651554   210A      1.651555
     211A      1.670925   212A      1.670942   213A      1.704707
     214A      1.704728   215A      1.723779   216A      1.723797
     217A      1.782060   218A      1.782077   219A      1.798285
     220A      1.798705   221A      1.806452   222A      1.806505
     223A      1.863905   224A      1.864784   225A      1.880547
     226A      1.881162   227A      1.923757   228A      1.923759
     229A      1.964384   230A      1.964397   231A      2.021396
     232A      2.021498   233A      2.024749   234A      2.024988
     235A      2.072367   236A      2.072432   237A      2.106444
     238A      2.106473   239A      2.126179   240A      2.126182
     241A      2.135389   242A      2.135392   243A      2.168078
     244A      2.168090   245A      2.178172   246A      2.178280
     247A      2.266471   248A      2.266510   249A      2.275328
     250A      2.275340   251A      2.300275   252A      2.300293
     253A      2.331422   254A      2.331498   255A      2.417197
     256A      2.417197   257A      2.496330   258A      2.496352
     259A      2.513390   260A      2.513420   261A      2.544718
     262A      2.544810   263A      2.585145   264A      2.585176
     265A      2.633149   266A      2.633176   267A      2.733507
     268A      2.733529   269A      2.746404   270A      2.746404
     271A      2.766237   272A      2.766808   273A      2.793532
     274A      2.793571   275A      2.802818   276A      2.802827
     277A      2.836872   278A      2.837275   279A      2.866592
     280A      2.866601   281A      2.952134   282A      2.952157
     283A      2.980228   284A      2.980230   285A      3.050616
     286A      3.050618   287A      3.069277   288A      3.069355
     289A      3.198425   290A      3.198677   291A      3.208096
     292A      3.208315   293A      3.334193   294A      3.334206
     295A      3.353908   296A      3.354019   297A      3.517933
     298A      3.517945   299A      3.767468   300A      3.767904
     301A      4.108400   302A      4.108519

    Final Occupation by Irrep:
              A
    DOCC [    36 ]

  @DF-RHF Final Energy:  -449.68747429792478

   => Energetics <=

    Nuclear Repulsion Energy =            372.5194330745599132
    One-Electron Energy =               -1346.5125732142062134
    Two-Electron Energy =                 524.3056658417216340
    Total Energy =                       -449.6874742979247230

Computation Completed


Properties will be evaluated at   0.000000,   0.000000,   0.000000 [a0]

Properties computed using the SCF density matrix

  Nuclear Dipole Moment: [e a0]
     X:  -324.8243      Y:   763.3279      Z:    22.0234

  Electronic Dipole Moment: [e a0]
     X:   324.8243      Y:  -763.3279      Z:   -22.0234

  Dipole Moment: [e a0]
     X:    -0.0000      Y:    -0.0000      Z:    -0.0000     Total:     0.0000

  Dipole Moment: [D]
     X:    -0.0000      Y:    -0.0000      Z:    -0.0000     Total:     0.0000


*** tstop() called on ds1 at Tue Sep 14 18:20:17 2021
Module time:
	user time   =      23.35 seconds =       0.39 minutes
	system time =       0.62 seconds =       0.01 minutes
	total time  =          5 seconds =       0.08 minutes
Total time:
	user time   =      23.35 seconds =       0.39 minutes
	system time =       0.62 seconds =       0.01 minutes
	total time  =          5 seconds =       0.08 minutes

  //>>>>>>>>>>>>>>>>>>>>>>>>>>>>>>>>>>>//
  //            Monomer A HF           //
  //<<<<<<<<<<<<<<<<<<<<<<<<<<<<<<<<<<<//


*** tstart() called on ds1
*** at Tue Sep 14 18:20:17 2021

   => Loading Basis Set <=

    Name: AUG-CC-PVDZ
    Role: ORBITAL
    Keyword: BASIS
    atoms 1-2, 10-11 entry N          line   218 file /theoryfs2/ds/csargent/miniconda3/envs/cle/share/psi4/basis/aug-cc-pvdz.gbs
    atoms 3-6, 12-15 entry H          line    40 file /theoryfs2/ds/csargent/miniconda3/envs/cle/share/psi4/basis/aug-cc-pvdz.gbs
    atoms 7-9, 16-18 entry C          line   182 file /theoryfs2/ds/csargent/miniconda3/envs/cle/share/psi4/basis/aug-cc-pvdz.gbs


         ---------------------------------------------------------
                                   SCF
               by Justin Turney, Rob Parrish, Andy Simmonett
                          and Daniel G. A. Smith
                              RHF Reference
                        6 Threads,   6675 MiB Core
         ---------------------------------------------------------

  ==> Geometry <==

    Molecular point group: c1
    Full point group: C1

    Geometry (in Bohr), charge = 0, multiplicity = 1:

       Center              X                  Y                   Z               Mass
    ------------   -----------------  -----------------  -----------------  -----------------
         N           -4.293096210000    -3.068374310000     5.305162310000    14.003074004430
         N           -2.158473710000    -2.926272960000     1.720374480000    14.003074004430
         H           -0.025455870000    -6.359035750000     2.220464520000     1.007825032230
         H           -2.685669680000    -6.532602410000     6.614459540000     1.007825032230
         H           -4.743884230000    -0.006090060000     2.756159680000     1.007825032230
         H           -1.410455400000    -2.247231470000     0.000000000000     1.007825032230
         C           -1.437379910000    -5.075048480000     2.940658910000    12.000000000000
         C           -2.769007820000    -5.146099160000     5.135228800000    12.000000000000
         C           -3.859550360000    -1.777281980000     3.210934110000    12.000000000000
      Gh(N)          -4.729800610000    24.271926870000    -4.693401680000    14.003074004430
      Gh(N)          -6.864423110000    24.129825520000    -1.108613840000    14.003074004430
      Gh(H)          -8.997440960000    27.562588310000    -1.608703890000     1.007825032230
      Gh(H)          -6.337227150000    27.736154970000    -6.002698910000     1.007825032230
      Gh(H)          -4.279012600000    21.209642620000    -2.144399040000     1.007825032230
      Gh(H)          -7.612441420000    23.450784030000     0.611760630000     1.007825032230
      Gh(C)          -7.585516910000    26.278601040000    -2.328898280000    12.000000000000
      Gh(C)          -6.253889010000    26.349651720000    -4.523468170000    12.000000000000
      Gh(C)          -5.163346470000    22.980834540000    -2.599173480000    12.000000000000

  Running in c1 symmetry.

  Rotational constants: A =      0.02990  B =      0.00131  C =      0.00126 [cm^-1]
  Rotational constants: A =    896.50072  B =     39.19007  C =     37.62905 [MHz]
  Nuclear repulsion =  164.086695994184396

  Charge       = 0
  Multiplicity = 1
  Electrons    = 36
  Nalpha       = 18
  Nbeta        = 18

  ==> Algorithm <==

  SCF Algorithm Type is DF.
  DIIS enabled.
  MOM disabled.
  Fractional occupation disabled.
  Guess Type is SAD.
  Energy threshold   = 1.00e-10
  Density threshold  = 1.00e-10
  Integral threshold = 1.00e-12

  ==> Primary Basis <==

  Basis Set: AUG-CC-PVDZ
    Blend: AUG-CC-PVDZ
    Number of shells: 130
    Number of basis functions: 302
    Number of Cartesian functions: 322
    Spherical Harmonics?: true
    Max angular momentum: 2

   => Loading Basis Set <=

    Name: (AUG-CC-PVDZ AUX)
    Role: JKFIT
    Keyword: DF_BASIS_SCF
    atoms 1-2, 10-11 entry N          line   212 file /theoryfs2/ds/csargent/miniconda3/envs/cle/share/psi4/basis/aug-cc-pvdz-jkfit.gbs
    atoms 3-6, 12-15 entry H          line    70 file /theoryfs2/ds/csargent/miniconda3/envs/cle/share/psi4/basis/aug-cc-pvdz-jkfit.gbs
    atoms 7-9, 16-18 entry C          line   154 file /theoryfs2/ds/csargent/miniconda3/envs/cle/share/psi4/basis/aug-cc-pvdz-jkfit.gbs

  ==> Integral Setup <==

  ==> DiskDFJK: Density-Fitted J/K Matrices <==

    J tasked:                  Yes
    K tasked:                  Yes
    wK tasked:                  No
    OpenMP threads:              6
    Integrals threads:           6
    Memory [MiB]:             5006
    Algorithm:                Core
    Integral Cache:           LOAD
    Schwarz Cutoff:          1E-12
    Fitting Condition:       1E-10

   => Auxiliary Basis Set <=

  Basis Set: (AUG-CC-PVDZ AUX)
    Blend: AUG-CC-PVDZ-JKFIT
    Number of shells: 376
    Number of basis functions: 1116
    Number of Cartesian functions: 1290
    Spherical Harmonics?: true
    Max angular momentum: 3

  Minimum eigenvalue in the overlap matrix is 2.1830962896E-05.
  Reciprocal condition number of the overlap matrix is 1.8389320853E-06.
    Using symmetric orthogonalization.

  ==> Pre-Iterations <==

  SCF Guess: Superposition of Atomic Densities via on-the-fly atomic UHF (no occupation information).

   -------------------------
    Irrep   Nso     Nmo
   -------------------------
     A        302     302
   -------------------------
    Total     302     302
   -------------------------

  ==> Iterations <==

                           Total Energy        Delta E     RMS |[F,P]|

   @DF-RHF iter SAD:  -224.55857169545772   -2.24559e+02   0.00000e+00
   @DF-RHF iter   1:  -224.69806466498449   -1.39493e-01   1.63067e-03 DIIS
   @DF-RHF iter   2:  -224.80532028645294   -1.07256e-01   9.27384e-04 DIIS
   @DF-RHF iter   3:  -224.84168819077476   -3.63679e-02   1.74019e-04 DIIS
   @DF-RHF iter   4:  -224.84337344306920   -1.68525e-03   7.98972e-05 DIIS
   @DF-RHF iter   5:  -224.84367502378421   -3.01581e-04   1.26452e-05 DIIS
   @DF-RHF iter   6:  -224.84369236081594   -1.73370e-05   5.61871e-06 DIIS
   @DF-RHF iter   7:  -224.84369544888409   -3.08807e-06   2.19503e-06 DIIS
   @DF-RHF iter   8:  -224.84369618080203   -7.31918e-07   7.77587e-07 DIIS
   @DF-RHF iter   9:  -224.84369629159636   -1.10794e-07   1.87961e-07 DIIS
   @DF-RHF iter  10:  -224.84369629713211   -5.53575e-09   7.33125e-08 DIIS
   @DF-RHF iter  11:  -224.84369629795796   -8.25850e-10   3.26918e-08 DIIS
   @DF-RHF iter  12:  -224.84369629811053   -1.52568e-10   9.70884e-09 DIIS
   @DF-RHF iter  13:  -224.84369629812360   -1.30740e-11   3.58840e-09 DIIS
   @DF-RHF iter  14:  -224.84369629812514   -1.53477e-12   1.58275e-09 DIIS
   @DF-RHF iter  15:  -224.84369629812539   -2.55795e-13   5.27556e-10 DIIS
   @DF-RHF iter  16:  -224.84369629812511    2.84217e-13   2.34517e-10 DIIS
   @DF-RHF iter  17:  -224.84369629812556   -4.54747e-13   4.71137e-11 DIIS
  Energy and wave function converged.


  ==> Post-Iterations <==

    Orbital Energies [Eh]
    ---------------------

    Doubly Occupied:

       1A    -15.637071     2A    -15.551216     3A    -11.300916
       4A    -11.263160     5A    -11.245653     6A     -1.352867
       7A     -1.169098     8A     -1.012098     9A     -0.824390
      10A     -0.803731    11A     -0.760666    12A     -0.610096
      13A     -0.603958    14A     -0.601922    15A     -0.570942
      16A     -0.435483    17A     -0.400464    18A     -0.320685

    Virtual:

      19A      0.022045    20A      0.025371    21A      0.038863
      22A      0.041988    23A      0.043304    24A      0.050027
      25A      0.061841    26A      0.067375    27A      0.075996
      28A      0.085564    29A      0.089099    30A      0.097070
      31A      0.101395    32A      0.120827    33A      0.124134
      34A      0.124567    35A      0.125571    36A      0.126319
      37A      0.126722    38A      0.133171    39A      0.133473
      40A      0.133877    41A      0.137722    42A      0.140951
      43A      0.156326    44A      0.156501    45A      0.159114
      46A      0.172003    47A      0.178189    48A      0.187234
      49A      0.191792    50A      0.207324    51A      0.208976
      52A      0.211559    53A      0.211876    54A      0.219589
      55A      0.220439    56A      0.222070    57A      0.232360
      58A      0.232720    59A      0.241409    60A      0.261607
      61A      0.267800    62A      0.271663    63A      0.277914
      64A      0.298762    65A      0.301750    66A      0.305947
      67A      0.314443    68A      0.318781    69A      0.338197
      70A      0.359497    71A      0.361539    72A      0.370757
      73A      0.375140    74A      0.379827    75A      0.388342
      76A      0.392898    77A      0.397164    78A      0.417211
      79A      0.427060    80A      0.429001    81A      0.434881
      82A      0.439831    83A      0.448605    84A      0.451730
      85A      0.452069    86A      0.466350    87A      0.467747
      88A      0.480492    89A      0.481232    90A      0.486284
      91A      0.488152    92A      0.516996    93A      0.520161
      94A      0.535409    95A      0.537859    96A      0.542683
      97A      0.551724    98A      0.555366    99A      0.556456
     100A      0.568293   101A      0.576482   102A      0.578984
     103A      0.587040   104A      0.594269   105A      0.598964
     106A      0.606025   107A      0.611498   108A      0.616080
     109A      0.617893   110A      0.636544   111A      0.639351
     112A      0.652508   113A      0.669282   114A      0.671338
     115A      0.677174   116A      0.678187   117A      0.683333
     118A      0.683876   119A      0.710636   120A      0.714698
     121A      0.725759   122A      0.735684   123A      0.741240
     124A      0.755671   125A      0.762704   126A      0.767407
     127A      0.790929   128A      0.793606   129A      0.797809
     130A      0.809688   131A      0.810037   132A      0.812030
     133A      0.822894   134A      0.836140   135A      0.859180
     136A      0.860418   137A      0.871443   138A      0.885763
     139A      0.886065   140A      0.889823   141A      0.909306
     142A      0.919179   143A      0.926431   144A      0.954351
     145A      0.968283   146A      0.976970   147A      0.991328
     148A      0.998375   149A      1.010707   150A      1.014967
     151A      1.017404   152A      1.030676   153A      1.058600
     154A      1.077269   155A      1.078303   156A      1.084556
     157A      1.103222   158A      1.115621   159A      1.127008
     160A      1.132097   161A      1.140527   162A      1.149567
     163A      1.167211   164A      1.170447   165A      1.173588
     166A      1.197086   167A      1.210150   168A      1.217446
     169A      1.260722   170A      1.277506   171A      1.290156
     172A      1.296500   173A      1.302544   174A      1.312108
     175A      1.317665   176A      1.347096   177A      1.383712
     178A      1.385040   179A      1.398152   180A      1.451144
     181A      1.494479   182A      1.503302   183A      1.515376
     184A      1.518410   185A      1.540922   186A      1.574133
     187A      1.574290   188A      1.596428   189A      1.652159
     190A      1.660516   191A      1.671505   192A      1.705286
     193A      1.724478   194A      1.782644   195A      1.799080
     196A      1.807065   197A      1.864978   198A      1.881495
     199A      1.924391   200A      1.964988   201A      2.022008
     202A      2.025435   203A      2.039310   204A      2.072983
     205A      2.100594   206A      2.107054   207A      2.119001
     208A      2.126759   209A      2.130982   210A      2.135965
     211A      2.149125   212A      2.168671   213A      2.178819
     214A      2.184826   215A      2.229408   216A      2.252381
     217A      2.267083   218A      2.275963   219A      2.300925
     220A      2.308353   221A      2.326746   222A      2.332074
     223A      2.376419   224A      2.405420   225A      2.413130
     226A      2.417758   227A      2.455497   228A      2.470535
     229A      2.493663   230A      2.496923   231A      2.514026
     232A      2.525495   233A      2.545114   234A      2.545350
     235A      2.576625   236A      2.585745   237A      2.599607
     238A      2.633766   239A      2.696045   240A      2.734094
     241A      2.747025   242A      2.767107   243A      2.789983
     244A      2.794150   245A      2.803444   246A      2.828631
     247A      2.837658   248A      2.867214   249A      2.895401
     250A      2.933109   251A      2.949246   252A      2.952741
     253A      2.980862   254A      3.043225   255A      3.051201
     256A      3.069912   257A      3.075970   258A      3.131619
     259A      3.159366   260A      3.182700   261A      3.199169
     262A      3.208792   263A      3.213172   264A      3.334816
     265A      3.340666   266A      3.354507   267A      3.354593
     268A      3.362733   269A      3.458454   270A      3.494147
     271A      3.518553   272A      3.569463   273A      3.608623
     274A      3.707053   275A      3.726531   276A      3.768308
     277A      3.778206   278A      3.798033   279A      3.857785
     280A      3.870485   281A      4.003653   282A      4.109026
     283A      4.212555   284A      4.636568   285A      4.638603
     286A      4.695778   287A      4.771603   288A      4.879914
     289A      5.021225   290A      5.254412   291A      5.372982
     292A      5.494583   293A      5.610236   294A      5.716141
     295A      5.883696   296A      6.089582   297A      6.197932
     298A     18.255368   299A     18.589822   300A     19.300329
     301A     25.311618   302A     25.453147

    Final Occupation by Irrep:
              A
    DOCC [    18 ]

  @DF-RHF Final Energy:  -224.84369629812556

   => Energetics <=

    Nuclear Repulsion Energy =            164.0866959941843959
    One-Electron Energy =                -628.9319565479476069
    Two-Electron Energy =                 240.0015642556376179
    Total Energy =                       -224.8436962981255647

Computation Completed


Properties will be evaluated at   0.000000,   0.000000,   0.000000 [a0]

Properties computed using the SCF density matrix

  Nuclear Dipole Moment: [e a0]
     X:  -102.4221      Y:  -129.0981      Z:   128.4908

  Electronic Dipole Moment: [e a0]
     X:   103.2259      Y:   129.2613      Z:  -129.8232

  Dipole Moment: [e a0]
     X:     0.8038      Y:     0.1633      Z:    -1.3324     Total:     1.5646

  Dipole Moment: [D]
     X:     2.0431      Y:     0.4150      Z:    -3.3867     Total:     3.9769


*** tstop() called on ds1 at Tue Sep 14 18:20:21 2021
Module time:
	user time   =      16.71 seconds =       0.28 minutes
	system time =       0.37 seconds =       0.01 minutes
	total time  =          4 seconds =       0.07 minutes
Total time:
	user time   =      40.24 seconds =       0.67 minutes
	system time =       1.00 seconds =       0.02 minutes
	total time  =          9 seconds =       0.15 minutes

  //>>>>>>>>>>>>>>>>>>>>>>>>>>>>>>>>>>>//
  //            Monomer B HF           //
  //<<<<<<<<<<<<<<<<<<<<<<<<<<<<<<<<<<<//


*** tstart() called on ds1
*** at Tue Sep 14 18:20:21 2021

   => Loading Basis Set <=

    Name: AUG-CC-PVDZ
    Role: ORBITAL
    Keyword: BASIS
    atoms 1-2, 10-11 entry N          line   218 file /theoryfs2/ds/csargent/miniconda3/envs/cle/share/psi4/basis/aug-cc-pvdz.gbs
    atoms 3-6, 12-15 entry H          line    40 file /theoryfs2/ds/csargent/miniconda3/envs/cle/share/psi4/basis/aug-cc-pvdz.gbs
    atoms 7-9, 16-18 entry C          line   182 file /theoryfs2/ds/csargent/miniconda3/envs/cle/share/psi4/basis/aug-cc-pvdz.gbs


         ---------------------------------------------------------
                                   SCF
               by Justin Turney, Rob Parrish, Andy Simmonett
                          and Daniel G. A. Smith
                              RHF Reference
                        6 Threads,   6675 MiB Core
         ---------------------------------------------------------

  ==> Geometry <==

    Molecular point group: c1
    Full point group: C1

    Geometry (in Bohr), charge = 0, multiplicity = 1:

       Center              X                  Y                   Z               Mass
    ------------   -----------------  -----------------  -----------------  -----------------
      Gh(N)          -4.293096210000    -3.068374310000     5.305162310000    14.003074004430
      Gh(N)          -2.158473710000    -2.926272960000     1.720374480000    14.003074004430
      Gh(H)          -0.025455870000    -6.359035750000     2.220464520000     1.007825032230
      Gh(H)          -2.685669680000    -6.532602410000     6.614459540000     1.007825032230
      Gh(H)          -4.743884230000    -0.006090060000     2.756159680000     1.007825032230
      Gh(H)          -1.410455400000    -2.247231470000     0.000000000000     1.007825032230
      Gh(C)          -1.437379910000    -5.075048480000     2.940658910000    12.000000000000
      Gh(C)          -2.769007820000    -5.146099160000     5.135228800000    12.000000000000
      Gh(C)          -3.859550360000    -1.777281980000     3.210934110000    12.000000000000
         N           -4.729800610000    24.271926870000    -4.693401680000    14.003074004430
         N           -6.864423110000    24.129825520000    -1.108613840000    14.003074004430
         H           -8.997440960000    27.562588310000    -1.608703890000     1.007825032230
         H           -6.337227150000    27.736154970000    -6.002698910000     1.007825032230
         H           -4.279012600000    21.209642620000    -2.144399040000     1.007825032230
         H           -7.612441420000    23.450784030000     0.611760630000     1.007825032230
         C           -7.585516910000    26.278601040000    -2.328898280000    12.000000000000
         C           -6.253889010000    26.349651720000    -4.523468170000    12.000000000000
         C           -5.163346470000    22.980834540000    -2.599173480000    12.000000000000

  Running in c1 symmetry.

  Rotational constants: A =      0.02990  B =      0.00131  C =      0.00126 [cm^-1]
  Rotational constants: A =    896.50072  B =     39.19007  C =     37.62905 [MHz]
  Nuclear repulsion =  164.086695920175970

  Charge       = 0
  Multiplicity = 1
  Electrons    = 36
  Nalpha       = 18
  Nbeta        = 18

  ==> Algorithm <==

  SCF Algorithm Type is DF.
  DIIS enabled.
  MOM disabled.
  Fractional occupation disabled.
  Guess Type is SAD.
  Energy threshold   = 1.00e-10
  Density threshold  = 1.00e-10
  Integral threshold = 1.00e-12

  ==> Primary Basis <==

  Basis Set: AUG-CC-PVDZ
    Blend: AUG-CC-PVDZ
    Number of shells: 130
    Number of basis functions: 302
    Number of Cartesian functions: 322
    Spherical Harmonics?: true
    Max angular momentum: 2

   => Loading Basis Set <=

    Name: (AUG-CC-PVDZ AUX)
    Role: JKFIT
    Keyword: DF_BASIS_SCF
    atoms 1-2, 10-11 entry N          line   212 file /theoryfs2/ds/csargent/miniconda3/envs/cle/share/psi4/basis/aug-cc-pvdz-jkfit.gbs
    atoms 3-6, 12-15 entry H          line    70 file /theoryfs2/ds/csargent/miniconda3/envs/cle/share/psi4/basis/aug-cc-pvdz-jkfit.gbs
    atoms 7-9, 16-18 entry C          line   154 file /theoryfs2/ds/csargent/miniconda3/envs/cle/share/psi4/basis/aug-cc-pvdz-jkfit.gbs

  ==> Integral Setup <==

  ==> DiskDFJK: Density-Fitted J/K Matrices <==

    J tasked:                  Yes
    K tasked:                  Yes
    wK tasked:                  No
    OpenMP threads:              6
    Integrals threads:           6
    Memory [MiB]:             5006
    Algorithm:                Core
    Integral Cache:           LOAD
    Schwarz Cutoff:          1E-12
    Fitting Condition:       1E-10

   => Auxiliary Basis Set <=

  Basis Set: (AUG-CC-PVDZ AUX)
    Blend: AUG-CC-PVDZ-JKFIT
    Number of shells: 376
    Number of basis functions: 1116
    Number of Cartesian functions: 1290
    Spherical Harmonics?: true
    Max angular momentum: 3

  Minimum eigenvalue in the overlap matrix is 2.1830962896E-05.
  Reciprocal condition number of the overlap matrix is 1.8389320853E-06.
    Using symmetric orthogonalization.

  ==> Pre-Iterations <==

  SCF Guess: Superposition of Atomic Densities via on-the-fly atomic UHF (no occupation information).

   -------------------------
    Irrep   Nso     Nmo
   -------------------------
     A        302     302
   -------------------------
    Total     302     302
   -------------------------

  ==> Iterations <==

                           Total Energy        Delta E     RMS |[F,P]|

   @DF-RHF iter SAD:  -224.55857169016753   -2.24559e+02   0.00000e+00
   @DF-RHF iter   1:  -224.69806466641069   -1.39493e-01   1.63067e-03 DIIS
   @DF-RHF iter   2:  -224.80532028761422   -1.07256e-01   9.27384e-04 DIIS
   @DF-RHF iter   3:  -224.84168819168156   -3.63679e-02   1.74019e-04 DIIS
   @DF-RHF iter   4:  -224.84337344398028   -1.68525e-03   7.98972e-05 DIIS
   @DF-RHF iter   5:  -224.84367502469681   -3.01581e-04   1.26452e-05 DIIS
   @DF-RHF iter   6:  -224.84369236172870   -1.73370e-05   5.61871e-06 DIIS
   @DF-RHF iter   7:  -224.84369544979677   -3.08807e-06   2.19503e-06 DIIS
   @DF-RHF iter   8:  -224.84369618171468   -7.31918e-07   7.77587e-07 DIIS
   @DF-RHF iter   9:  -224.84369629250864   -1.10794e-07   1.87961e-07 DIIS
   @DF-RHF iter  10:  -224.84369629804462   -5.53598e-09   7.33125e-08 DIIS
   @DF-RHF iter  11:  -224.84369629887087   -8.26248e-10   3.26918e-08 DIIS
   @DF-RHF iter  12:  -224.84369629902267   -1.51800e-10   9.70884e-09 DIIS
   @DF-RHF iter  13:  -224.84369629903605   -1.33866e-11   3.58840e-09 DIIS
   @DF-RHF iter  14:  -224.84369629903784   -1.79057e-12   1.58275e-09 DIIS
   @DF-RHF iter  15:  -224.84369629903819   -3.41061e-13   5.27556e-10 DIIS
   @DF-RHF iter  16:  -224.84369629903784    3.41061e-13   2.34517e-10 DIIS
   @DF-RHF iter  17:  -224.84369629903833   -4.83169e-13   4.71137e-11 DIIS
  Energy and wave function converged.


  ==> Post-Iterations <==

    Orbital Energies [Eh]
    ---------------------

    Doubly Occupied:

       1A    -15.637071     2A    -15.551216     3A    -11.300916
       4A    -11.263160     5A    -11.245653     6A     -1.352867
       7A     -1.169098     8A     -1.012098     9A     -0.824390
      10A     -0.803731    11A     -0.760666    12A     -0.610096
      13A     -0.603958    14A     -0.601922    15A     -0.570942
      16A     -0.435483    17A     -0.400464    18A     -0.320685

    Virtual:

      19A      0.022045    20A      0.025371    21A      0.038863
      22A      0.041988    23A      0.043304    24A      0.050027
      25A      0.061841    26A      0.067375    27A      0.075996
      28A      0.085564    29A      0.089099    30A      0.097070
      31A      0.101395    32A      0.120827    33A      0.124134
      34A      0.124567    35A      0.125571    36A      0.126319
      37A      0.126722    38A      0.133171    39A      0.133473
      40A      0.133877    41A      0.137722    42A      0.140951
      43A      0.156326    44A      0.156501    45A      0.159114
      46A      0.172003    47A      0.178189    48A      0.187234
      49A      0.191792    50A      0.207324    51A      0.208976
      52A      0.211559    53A      0.211876    54A      0.219589
      55A      0.220439    56A      0.222070    57A      0.232360
      58A      0.232720    59A      0.241409    60A      0.261607
      61A      0.267800    62A      0.271663    63A      0.277914
      64A      0.298762    65A      0.301750    66A      0.305947
      67A      0.314443    68A      0.318781    69A      0.338197
      70A      0.359497    71A      0.361539    72A      0.370757
      73A      0.375140    74A      0.379827    75A      0.388342
      76A      0.392898    77A      0.397164    78A      0.417211
      79A      0.427060    80A      0.429001    81A      0.434881
      82A      0.439831    83A      0.448605    84A      0.451730
      85A      0.452069    86A      0.466350    87A      0.467747
      88A      0.480492    89A      0.481232    90A      0.486284
      91A      0.488152    92A      0.516996    93A      0.520161
      94A      0.535409    95A      0.537859    96A      0.542683
      97A      0.551724    98A      0.555366    99A      0.556456
     100A      0.568293   101A      0.576482   102A      0.578984
     103A      0.587040   104A      0.594269   105A      0.598964
     106A      0.606025   107A      0.611498   108A      0.616080
     109A      0.617893   110A      0.636544   111A      0.639351
     112A      0.652508   113A      0.669282   114A      0.671338
     115A      0.677174   116A      0.678187   117A      0.683333
     118A      0.683876   119A      0.710636   120A      0.714698
     121A      0.725759   122A      0.735684   123A      0.741240
     124A      0.755671   125A      0.762704   126A      0.767407
     127A      0.790929   128A      0.793606   129A      0.797809
     130A      0.809688   131A      0.810037   132A      0.812030
     133A      0.822894   134A      0.836140   135A      0.859180
     136A      0.860418   137A      0.871443   138A      0.885763
     139A      0.886065   140A      0.889823   141A      0.909306
     142A      0.919179   143A      0.926431   144A      0.954351
     145A      0.968283   146A      0.976970   147A      0.991328
     148A      0.998375   149A      1.010707   150A      1.014967
     151A      1.017404   152A      1.030676   153A      1.058600
     154A      1.077269   155A      1.078303   156A      1.084556
     157A      1.103222   158A      1.115621   159A      1.127008
     160A      1.132097   161A      1.140527   162A      1.149567
     163A      1.167211   164A      1.170447   165A      1.173588
     166A      1.197086   167A      1.210150   168A      1.217446
     169A      1.260722   170A      1.277506   171A      1.290156
     172A      1.296500   173A      1.302544   174A      1.312108
     175A      1.317665   176A      1.347096   177A      1.383712
     178A      1.385040   179A      1.398152   180A      1.451144
     181A      1.494479   182A      1.503302   183A      1.515376
     184A      1.518410   185A      1.540922   186A      1.574133
     187A      1.574290   188A      1.596428   189A      1.652159
     190A      1.660516   191A      1.671505   192A      1.705286
     193A      1.724478   194A      1.782644   195A      1.799080
     196A      1.807065   197A      1.864978   198A      1.881495
     199A      1.924391   200A      1.964988   201A      2.022008
     202A      2.025435   203A      2.039310   204A      2.072983
     205A      2.100594   206A      2.107054   207A      2.119001
     208A      2.126759   209A      2.130982   210A      2.135965
     211A      2.149125   212A      2.168671   213A      2.178819
     214A      2.184826   215A      2.229408   216A      2.252381
     217A      2.267083   218A      2.275963   219A      2.300925
     220A      2.308353   221A      2.326746   222A      2.332074
     223A      2.376419   224A      2.405420   225A      2.413130
     226A      2.417758   227A      2.455497   228A      2.470535
     229A      2.493663   230A      2.496923   231A      2.514026
     232A      2.525495   233A      2.545114   234A      2.545350
     235A      2.576625   236A      2.585745   237A      2.599607
     238A      2.633766   239A      2.696045   240A      2.734094
     241A      2.747025   242A      2.767107   243A      2.789983
     244A      2.794150   245A      2.803444   246A      2.828631
     247A      2.837658   248A      2.867214   249A      2.895401
     250A      2.933109   251A      2.949246   252A      2.952741
     253A      2.980862   254A      3.043225   255A      3.051201
     256A      3.069912   257A      3.075970   258A      3.131619
     259A      3.159366   260A      3.182700   261A      3.199169
     262A      3.208792   263A      3.213172   264A      3.334816
     265A      3.340666   266A      3.354507   267A      3.354593
     268A      3.362733   269A      3.458454   270A      3.494147
     271A      3.518553   272A      3.569463   273A      3.608623
     274A      3.707053   275A      3.726531   276A      3.768308
     277A      3.778206   278A      3.798033   279A      3.857785
     280A      3.870485   281A      4.003653   282A      4.109026
     283A      4.212555   284A      4.636568   285A      4.638603
     286A      4.695778   287A      4.771603   288A      4.879914
     289A      5.021225   290A      5.254412   291A      5.372982
     292A      5.494583   293A      5.610236   294A      5.716141
     295A      5.883696   296A      6.089582   297A      6.197932
     298A     18.255368   299A     18.589822   300A     19.300329
     301A     25.311618   302A     25.453147

    Final Occupation by Irrep:
              A
    DOCC [    18 ]

  @DF-RHF Final Energy:  -224.84369629903833

   => Energetics <=

    Nuclear Repulsion Energy =            164.0866959201759698
    One-Electron Energy =                -628.9319563999833917
    Two-Electron Energy =                 240.0015641807690656
    Total Energy =                       -224.8436962990383279

Computation Completed


Properties will be evaluated at   0.000000,   0.000000,   0.000000 [a0]

Properties computed using the SCF density matrix

  Nuclear Dipole Moment: [e a0]
     X:  -222.4022      Y:   892.4260      Z:  -106.4674

  Electronic Dipole Moment: [e a0]
     X:   221.5984      Y:  -892.5892      Z:   107.7998

  Dipole Moment: [e a0]
     X:    -0.8038      Y:    -0.1633      Z:     1.3324     Total:     1.5646

  Dipole Moment: [D]
     X:    -2.0431      Y:    -0.4150      Z:     3.3867     Total:     3.9769


*** tstop() called on ds1 at Tue Sep 14 18:20:25 2021
Module time:
	user time   =      16.55 seconds =       0.28 minutes
	system time =       0.29 seconds =       0.00 minutes
	total time  =          4 seconds =       0.07 minutes
Total time:
	user time   =      57.00 seconds =       0.95 minutes
	system time =       1.30 seconds =       0.02 minutes
	total time  =         13 seconds =       0.22 minutes
  Constructing Basis Sets for SAPT...

   => Loading Basis Set <=

    Name: (AUG-CC-PVDZ AUX)
    Role: RIFIT
    Keyword: DF_BASIS_SAPT
    atoms 1-2, 10-11 entry N          line   158 file /theoryfs2/ds/csargent/miniconda3/envs/cle/share/psi4/basis/aug-cc-pvdz-ri.gbs
    atoms 3-6, 12-15 entry H          line    30 file /theoryfs2/ds/csargent/miniconda3/envs/cle/share/psi4/basis/aug-cc-pvdz-ri.gbs
    atoms 7-9, 16-18 entry C          line   112 file /theoryfs2/ds/csargent/miniconda3/envs/cle/share/psi4/basis/aug-cc-pvdz-ri.gbs


  //>>>>>>>>>>>>>>>>>>>>>>>>>>>>>>>>>>>//
  //               SAPT0               //
  //<<<<<<<<<<<<<<<<<<<<<<<<<<<<<<<<<<<//


*** tstart() called on ds1
*** at Tue Sep 14 18:20:25 2021

        SAPT0
    Ed Hohenstein
     6 June 2009

      Orbital Information
  --------------------------
    NSO        =       302
    NMO        =       302
    NRI        =       904
    NOCC A     =        18
    NOCC B     =        18
    FOCC A     =         5
    FOCC B     =         5
    NVIR A     =       284
    NVIR B     =       284

    Elst10,r            =    -0.000081309941 [Eh]
    Exch10              =    -0.000000000007 [Eh]
    Exch10 (S^2)        =    -0.000000000007 [Eh]

    Iter     Energy [mEh]          dE [mEh]         Residual      Time [s]
       1      -0.00017303       0.000173028       0.134162951             0
       2      -0.00016423      -0.000008794       0.038684539             0
       3      -0.00018332       0.000019087       0.014198718             0
       4      -0.00018537       0.000002053       0.005786020             1
       5      -0.00018482      -0.000000555       0.002895261             1
       6      -0.00018454      -0.000000275       0.000863177             1
       7      -0.00018462       0.000000071       0.000293021             1
       8      -0.00018464       0.000000025       0.000092497             1
       9      -0.00018464      -0.000000003       0.000035236             1
      10      -0.00018463      -0.000000004       0.000008537             1
      11      -0.00018463       0.000000001       0.000003590             1
      12      -0.00018463       0.000000000       0.000001169             2
      13      -0.00018463      -0.000000000       0.000000376             2

    CHF Iterations converged


    Iter     Energy [mEh]          dE [mEh]         Residual      Time [s]
       1      -0.00017303       0.000173028       0.134162951             0
       2      -0.00016423      -0.000008794       0.038684539             0
       3      -0.00018332       0.000019087       0.014198718             0
       4      -0.00018537       0.000002053       0.005786020             0
       5      -0.00018482      -0.000000555       0.002895261             0
       6      -0.00018454      -0.000000275       0.000863177             0
       7      -0.00018462       0.000000071       0.000293021             1
       8      -0.00018464       0.000000025       0.000092497             1
       9      -0.00018464      -0.000000003       0.000035236             1
      10      -0.00018463      -0.000000004       0.000008537             1
      11      -0.00018463       0.000000001       0.000003590             1
      12      -0.00018463       0.000000000       0.000001169             1
      13      -0.00018463      -0.000000000       0.000000376             1

    CHF Iterations converged

    Ind20,r (A<-B)      =    -0.000000184633 [Eh]
    Ind20,r (B<-A)      =    -0.000000184633 [Eh]
    Ind20,r             =    -0.000000369267 [Eh]
    Exch-Ind20,r (A<-B) =     0.000000000007 [Eh]
    Exch-Ind20,r (B<-A) =     0.000000000007 [Eh]
    Exch-Ind20,r        =     0.000000000014 [Eh]
    Disp20              =    -0.000002286410 [Eh]
    Disp20 (SS)         =    -0.000001143205 [Eh]
    Disp20 (OS)         =    -0.000001143205 [Eh]
    Exch-Disp20         =     0.000000000003 [Eh]
    Exch-Disp20 (SS)    =     0.000000000002 [Eh]
    Exch-Disp20 (OS)    =     0.000000000001 [Eh]

    SAPT Results
  --------------------------------------------------------------------------------------------------------
    Electrostatics                 -0.08130994 [mEh]      -0.05102276 [kcal/mol]      -0.21347922 [kJ/mol]
      Elst10,r                     -0.08130994 [mEh]      -0.05102276 [kcal/mol]      -0.21347922 [kJ/mol]

    Exchange                       -0.00000001 [mEh]      -0.00000000 [kcal/mol]      -0.00000002 [kJ/mol]
      Exch10                       -0.00000001 [mEh]      -0.00000000 [kcal/mol]      -0.00000002 [kJ/mol]
      Exch10(S^2)                  -0.00000001 [mEh]      -0.00000000 [kcal/mol]      -0.00000002 [kJ/mol]

    Induction                      -0.00039081 [mEh]      -0.00024524 [kcal/mol]      -0.00102608 [kJ/mol]
      Ind20,r                      -0.00036927 [mEh]      -0.00023172 [kcal/mol]      -0.00096951 [kJ/mol]
      Exch-Ind20,r                  0.00000001 [mEh]       0.00000001 [kcal/mol]       0.00000004 [kJ/mol]
      delta HF,r (2)               -0.00002156 [mEh]      -0.00001353 [kcal/mol]      -0.00005661 [kJ/mol]

    Dispersion                     -0.00228641 [mEh]      -0.00143474 [kcal/mol]      -0.00600296 [kJ/mol]
      Disp20                       -0.00228641 [mEh]      -0.00143474 [kcal/mol]      -0.00600297 [kJ/mol]
      Exch-Disp20                   0.00000000 [mEh]       0.00000000 [kcal/mol]       0.00000001 [kJ/mol]
      Disp20 (SS)                  -0.00114320 [mEh]      -0.00071737 [kcal/mol]      -0.00300148 [kJ/mol]
      Disp20 (OS)                  -0.00114320 [mEh]      -0.00071737 [kcal/mol]      -0.00300148 [kJ/mol]
      Exch-Disp20 (SS)              0.00000000 [mEh]       0.00000000 [kcal/mol]       0.00000001 [kJ/mol]
      Exch-Disp20 (OS)              0.00000000 [mEh]       0.00000000 [kcal/mol]       0.00000000 [kJ/mol]

  Total HF                         -0.08170076 [mEh]      -0.05126800 [kcal/mol]      -0.21450532 [kJ/mol]
  Total SAPT0                      -0.08398717 [mEh]      -0.05270274 [kcal/mol]      -0.22050828 [kJ/mol]

  Special recipe for scaled SAPT0 (see Manual):
    Electrostatics sSAPT0          -0.08130994 [mEh]      -0.05102276 [kcal/mol]      -0.21347922 [kJ/mol]
    Exchange sSAPT0                -0.00000001 [mEh]      -0.00000000 [kcal/mol]      -0.00000002 [kJ/mol]
    Induction sSAPT0               -0.00039081 [mEh]      -0.00024524 [kcal/mol]      -0.00102608 [kJ/mol]
    Dispersion sSAPT0              -0.00228641 [mEh]      -0.00143474 [kcal/mol]      -0.00600296 [kJ/mol]
  Total sSAPT0                     -0.08398717 [mEh]      -0.05270274 [kcal/mol]      -0.22050828 [kJ/mol]
  --------------------------------------------------------------------------------------------------------

*** tstop() called on ds1 at Tue Sep 14 18:20:35 2021
Module time:
	user time   =      46.43 seconds =       0.77 minutes
	system time =       4.17 seconds =       0.07 minutes
	total time  =         10 seconds =       0.17 minutes
Total time:
	user time   =     104.24 seconds =       1.74 minutes
	system time =       5.50 seconds =       0.09 minutes
	total time  =         23 seconds =       0.38 minutes


Warning! sapt0 does not have an associated derived wavefunction.The returned wavefunction is the dimer SCF wavefunction.


    Psi4 stopped on: Tuesday, 14 September 2021 06:20PM
    Psi4 wall time for execution: 0:00:22.36

*** Psi4 exiting successfully. Buy a developer a beer!
