
    -----------------------------------------------------------------------
          Psi4: An Open-Source Ab Initio Electronic Structure Package
                               Psi4 1.4rc3

                         Git: Rev {HEAD} 080dba6


    D. G. A. Smith, L. A. Burns, A. C. Simmonett, R. M. Parrish,
    M. C. Schieber, R. Galvelis, P. Kraus, H. Kruse, R. Di Remigio,
    A. Alenaizan, A. M. James, S. Lehtola, J. P. Misiewicz, M. Scheurer,
    R. A. Shaw, J. B. Schriber, Y. Xie, Z. L. Glick, D. A. Sirianni,
    J. S. O'Brien, J. M. Waldrop, A. Kumar, E. G. Hohenstein,
    B. P. Pritchard, B. R. Brooks, H. F. Schaefer III, A. Yu. Sokolov,
    K. Patkowski, A. E. DePrince III, U. Bozkaya, R. A. King,
    F. A. Evangelista, J. M. Turney, T. D. Crawford, C. D. Sherrill,
    J. Chem. Phys. 152(18) 184108 (2020). https://doi.org/10.1063/5.0006002

                            Additional Code Authors
    E. T. Seidl, C. L. Janssen, E. F. Valeev, M. L. Leininger,
    J. F. Gonthier, R. M. Richard, H. R. McAlexander, M. Saitow, X. Wang,
    P. Verma, and M. H. Lechner

             Previous Authors, Complete List of Code Contributors,
                       and Citations for Specific Modules
    https://github.com/psi4/psi4/blob/master/codemeta.json
    https://github.com/psi4/psi4/graphs/contributors
    http://psicode.org/psi4manual/master/introduction.html#citing-psifour

    -----------------------------------------------------------------------


    Psi4 started on: Tuesday, 14 September 2021 04:17PM

    Process ID: 31994
    Host:       ds1
    PSIDATADIR: /theoryfs2/ds/csargent/miniconda3/envs/cle/share/psi4
    Memory:     500.0 MiB
    Threads:    6

  ==> Input File <==

--------------------------------------------------------------------------
# PSI4 file produced by CrystaLattE

# Generated from:               imidazole.xyz
# Psithon input for N-mer:      2mer-0+91
# Number of atoms per monomer:  [9, 9]
# Number of replicas:           2
# COM priority:                 4.599261040020e-05
# Minimum COM separations:      14.770
# Separation priority:          9.726931946394e-05
# Minimum monomer separations:  11.506
# Cutoff priority:              4.473366727476e-06
# Nuclear repulsion energy:     374.7776468236925

memory 7 GB

molecule Dimer_0_91 {
  N           -4.29309621      -3.06837431       5.30516231
  N           -2.15847371      -2.92627296       1.72037448
  H           -0.02545587      -6.35903575       2.22046452
  H           -2.68566968      -6.53260241       6.61445954
  H           -4.74388423      -0.00609006       2.75615968
  H           -1.41045540      -2.24723147       0.00000000
  C           -1.43737991      -5.07504848       2.94065891
  C           -2.76900782      -5.14609916       5.13522880
  C           -3.85955036      -1.77728198       3.21093411
--
  N            9.15346162      -1.10331554     -18.97105327
  N           11.28808412      -1.24541690     -22.55584110
  H           13.42110197       2.18734590     -22.05575106
  H           10.76088815       2.36091255     -17.66175604
  H            8.70267361      -4.16559979     -21.52005591
  H           12.03610243      -1.92445838     -24.27621558
  C           12.00917792       0.90335863     -21.33555667
  C           10.67755001       0.97440931     -19.14098678
  C            9.58700747      -2.39440787     -21.06528147
units = au
no_com
no_reorient
}

set {
  e_convergence 10
  d_convergence 10
  scf_type df
  mp2_type df
  cc_type df
  freeze_core true
}

energy('sapt0/aug-cc-pvdz')

--------------------------------------------------------------------------

  Memory set to   6.519 GiB by Python driver.

Scratch directory: /scratch/csargent/psi4.31446.79897/

Scratch directory: /scratch/csargent/psi4.31446.79897/

  //>>>>>>>>>>>>>>>>>>>>>>>>>>>>>>>>>>>//
  //              Dimer HF             //
  //<<<<<<<<<<<<<<<<<<<<<<<<<<<<<<<<<<<//


*** tstart() called on ds1
*** at Tue Sep 14 16:17:41 2021

   => Loading Basis Set <=

    Name: AUG-CC-PVDZ
    Role: ORBITAL
    Keyword: BASIS
    atoms 1-2, 10-11 entry N          line   218 file /theoryfs2/ds/csargent/miniconda3/envs/cle/share/psi4/basis/aug-cc-pvdz.gbs
    atoms 3-6, 12-15 entry H          line    40 file /theoryfs2/ds/csargent/miniconda3/envs/cle/share/psi4/basis/aug-cc-pvdz.gbs
    atoms 7-9, 16-18 entry C          line   182 file /theoryfs2/ds/csargent/miniconda3/envs/cle/share/psi4/basis/aug-cc-pvdz.gbs


         ---------------------------------------------------------
                                   SCF
               by Justin Turney, Rob Parrish, Andy Simmonett
                          and Daniel G. A. Smith
                              RHF Reference
                        6 Threads,   6675 MiB Core
         ---------------------------------------------------------

  ==> Geometry <==

    Molecular point group: c1
    Full point group: C1

    Geometry (in Bohr), charge = 0, multiplicity = 1:

       Center              X                  Y                   Z               Mass
    ------------   -----------------  -----------------  -----------------  -----------------
         N           -4.293096210000    -3.068374310000     5.305162310000    14.003074004430
         N           -2.158473710000    -2.926272960000     1.720374480000    14.003074004430
         H           -0.025455870000    -6.359035750000     2.220464520000     1.007825032230
         H           -2.685669680000    -6.532602410000     6.614459540000     1.007825032230
         H           -4.743884230000    -0.006090060000     2.756159680000     1.007825032230
         H           -1.410455400000    -2.247231470000     0.000000000000     1.007825032230
         C           -1.437379910000    -5.075048480000     2.940658910000    12.000000000000
         C           -2.769007820000    -5.146099160000     5.135228800000    12.000000000000
         C           -3.859550360000    -1.777281980000     3.210934110000    12.000000000000
         N            9.153461620000    -1.103315540000   -18.971053270000    14.003074004430
         N           11.288084120000    -1.245416900000   -22.555841100000    14.003074004430
         H           13.421101970000     2.187345900000   -22.055751060000     1.007825032230
         H           10.760888150000     2.360912550000   -17.661756040000     1.007825032230
         H            8.702673610000    -4.165599790000   -21.520055910000     1.007825032230
         H           12.036102430000    -1.924458380000   -24.276215580000     1.007825032230
         C           12.009177920000     0.903358630000   -21.335556670000    12.000000000000
         C           10.677550010000     0.974409310000   -19.140986780000    12.000000000000
         C            9.587007470000    -2.394407870000   -21.065281470000    12.000000000000

  Running in c1 symmetry.

  Rotational constants: A =      0.04581  B =      0.00156  C =      0.00152 [cm^-1]
  Rotational constants: A =   1373.23121  B =     46.83517  C =     45.52402 [MHz]
  Nuclear repulsion =  374.777646936670976

  Charge       = 0
  Multiplicity = 1
  Electrons    = 72
  Nalpha       = 36
  Nbeta        = 36

  ==> Algorithm <==

  SCF Algorithm Type is DF.
  DIIS enabled.
  MOM disabled.
  Fractional occupation disabled.
  Guess Type is SAD.
  Energy threshold   = 1.00e-10
  Density threshold  = 1.00e-10
  Integral threshold = 1.00e-12

  ==> Primary Basis <==

  Basis Set: AUG-CC-PVDZ
    Blend: AUG-CC-PVDZ
    Number of shells: 130
    Number of basis functions: 302
    Number of Cartesian functions: 322
    Spherical Harmonics?: true
    Max angular momentum: 2

   => Loading Basis Set <=

    Name: (AUG-CC-PVDZ AUX)
    Role: JKFIT
    Keyword: DF_BASIS_SCF
    atoms 1-2, 10-11 entry N          line   212 file /theoryfs2/ds/csargent/miniconda3/envs/cle/share/psi4/basis/aug-cc-pvdz-jkfit.gbs
    atoms 3-6, 12-15 entry H          line    70 file /theoryfs2/ds/csargent/miniconda3/envs/cle/share/psi4/basis/aug-cc-pvdz-jkfit.gbs
    atoms 7-9, 16-18 entry C          line   154 file /theoryfs2/ds/csargent/miniconda3/envs/cle/share/psi4/basis/aug-cc-pvdz-jkfit.gbs

  ==> Integral Setup <==

  ==> DiskDFJK: Density-Fitted J/K Matrices <==

    J tasked:                  Yes
    K tasked:                  Yes
    wK tasked:                  No
    OpenMP threads:              6
    Integrals threads:           6
    Memory [MiB]:             5006
    Algorithm:                Core
    Integral Cache:           SAVE
    Schwarz Cutoff:          1E-12
    Fitting Condition:       1E-10

   => Auxiliary Basis Set <=

  Basis Set: (AUG-CC-PVDZ AUX)
    Blend: AUG-CC-PVDZ-JKFIT
    Number of shells: 376
    Number of basis functions: 1116
    Number of Cartesian functions: 1290
    Spherical Harmonics?: true
    Max angular momentum: 3

  Minimum eigenvalue in the overlap matrix is 2.1831069884E-05.
  Reciprocal condition number of the overlap matrix is 1.8389422401E-06.
    Using symmetric orthogonalization.

  ==> Pre-Iterations <==

  SCF Guess: Superposition of Atomic Densities via on-the-fly atomic UHF (no occupation information).

   -------------------------
    Irrep   Nso     Nmo
   -------------------------
     A        302     302
   -------------------------
    Total     302     302
   -------------------------

  ==> Iterations <==

                           Total Energy        Delta E     RMS |[F,P]|

   @DF-RHF iter SAD:  -449.11714339271288   -4.49117e+02   0.00000e+00
   @DF-RHF iter   1:  -449.39683148201806   -2.79688e-01   2.30450e-03 DIIS
   @DF-RHF iter   2:  -449.61128063248901   -2.14449e-01   1.30846e-03 DIIS
   @DF-RHF iter   3:  -449.68365420191526   -7.23736e-02   2.45136e-04 DIIS
   @DF-RHF iter   4:  -449.68700779552921   -3.35359e-03   1.12381e-04 DIIS
   @DF-RHF iter   5:  -449.68760434169923   -5.96546e-04   1.78651e-05 DIIS
   @DF-RHF iter   6:  -449.68763891495774   -3.45733e-05   7.92867e-06 DIIS
   @DF-RHF iter   7:  -449.68764507429216   -6.15933e-06   3.09855e-06 DIIS
   @DF-RHF iter   8:  -449.68764653695666   -1.46266e-06   1.09925e-06 DIIS
   @DF-RHF iter   9:  -449.68764675857830   -2.21622e-07   2.65055e-07 DIIS
   @DF-RHF iter  10:  -449.68764676962644   -1.10481e-08   1.03007e-07 DIIS
   @DF-RHF iter  11:  -449.68764677125876   -1.63232e-09   4.62426e-08 DIIS
   @DF-RHF iter  12:  -449.68764677156082   -3.02066e-10   1.36906e-08 DIIS
   @DF-RHF iter  13:  -449.68764677158748   -2.66596e-11   5.05886e-09 DIIS
   @DF-RHF iter  14:  -449.68764677159095   -3.46745e-12   2.23811e-09 DIIS
   @DF-RHF iter  15:  -449.68764677159248   -1.53477e-12   7.44587e-10 DIIS
   @DF-RHF iter  16:  -449.68764677159260   -1.13687e-13   3.30690e-10 DIIS
   @DF-RHF iter  17:  -449.68764677159203    5.68434e-13   6.89027e-11 DIIS
  Energy and wave function converged.


  ==> Post-Iterations <==

    Orbital Energies [Eh]
    ---------------------

    Doubly Occupied:

       1A    -15.639103     2A    -15.634897     3A    -15.553427
       4A    -15.549229     5A    -11.303045     6A    -11.298874
       7A    -11.265237     8A    -11.261110     9A    -11.247779
      10A    -11.243645    11A     -1.354955    12A     -1.350778
      13A     -1.171227    14A     -1.167035    15A     -1.014191
      16A     -1.010049    17A     -0.826472    18A     -0.822272
      19A     -0.805841    20A     -0.801681    21A     -0.762737
      22A     -0.758586    23A     -0.612201    24A     -0.608027
      25A     -0.606032    26A     -0.603963    27A     -0.601861
      28A     -0.599822    29A     -0.573116    30A     -0.568972
      31A     -0.437755    32A     -0.433532    33A     -0.402629
      34A     -0.398430    35A     -0.322774    36A     -0.318650

    Virtual:

      37A      0.023900    38A      0.028385    39A      0.039908
      40A      0.043738    41A      0.047545    42A      0.051974
      43A      0.059744    44A      0.064147    45A      0.087173
      46A      0.091076    47A      0.099116    48A      0.103369
      49A      0.118845    50A      0.122926    51A      0.123550
      52A      0.127612    53A      0.131140    54A      0.131699
      55A      0.135567    56A      0.136361    57A      0.138856
      58A      0.142776    59A      0.154671    60A      0.156837
      61A      0.158723    62A      0.160898    63A      0.169700
      64A      0.173594    65A      0.176210    66A      0.180391
      67A      0.185368    68A      0.189784    69A      0.209324
      70A      0.213517    71A      0.218301    72A      0.222200
      73A      0.230093    74A      0.234350    75A      0.239426
      76A      0.243515    77A      0.259559    78A      0.263829
      79A      0.265078    80A      0.269597    81A      0.275553
      82A      0.279706    83A      0.299760    84A      0.303800
      85A      0.312079    86A      0.316385    87A      0.335957
      88A      0.340224    89A      0.359500    90A      0.363676
      91A      0.368770    92A      0.372925    93A      0.377837
      94A      0.382241    95A      0.386369    96A      0.390408
      97A      0.395077    98A      0.399437    99A      0.414933
     100A      0.418901   101A      0.426703   102A      0.430968
     103A      0.450052   104A      0.454074   105A      0.464298
     106A      0.468487   107A      0.479301   108A      0.483455
     109A      0.484174   110A      0.485994   111A      0.488317
     112A      0.490158   113A      0.549682   114A      0.553765
     115A      0.554404   116A      0.558499   117A      0.566249
     118A      0.570361   119A      0.574373   120A      0.578606
     121A      0.592245   122A      0.596445   123A      0.596962
     124A      0.601145   125A      0.613911   126A      0.618027
     127A      0.634462   128A      0.638643   129A      0.650346
     130A      0.654503   131A      0.667142   132A      0.669246
     133A      0.671325   134A      0.673361   135A      0.676150
     136A      0.680435   137A      0.681789   138A      0.685890
     139A      0.712633   140A      0.716809   141A      0.723783
     142A      0.727989   143A      0.739124   144A      0.743259
     145A      0.760565   146A      0.764687   147A      0.765271
     148A      0.769413   149A      0.788847   150A      0.791482
     151A      0.793053   152A      0.795648   153A      0.807701
     154A      0.811879   155A      0.858302   156A      0.862465
     157A      0.869334   158A      0.873458   159A      0.883588
     160A      0.887728   161A      0.887764   162A      0.891825
     163A      0.952273   164A      0.956393   165A      0.974900
     166A      0.979117   167A      0.996178   168A      1.000471
     169A      1.008437   170A      1.012662   171A      1.015275
     172A      1.019403   173A      1.028598   174A      1.032765
     175A      1.075165   176A      1.079348   177A      1.082459
     178A      1.086634   179A      1.124864   180A      1.129007
     181A      1.138323   182A      1.142494   183A      1.147478
     184A      1.151646   185A      1.165032   186A      1.169187
     187A      1.215275   188A      1.219442   189A      1.258708
     190A      1.262835   191A      1.300392   192A      1.304511
     193A      1.382974   194A      1.387188   195A      1.395958
     196A      1.400138   197A      1.449012   198A      1.453216
     199A      1.501132   200A      1.505347   201A      1.516337
     202A      1.520493   203A      1.572028   204A      1.572135
     205A      1.576174   206A      1.576265   207A      1.594310
     208A      1.598450   209A      1.650032   210A      1.654195
     211A      1.669415   212A      1.673532   213A      1.703206
     214A      1.707302   215A      1.722367   216A      1.726499
     217A      1.780585   218A      1.784699   219A      1.796971
     220A      1.801090   221A      1.804911   222A      1.809030
     223A      1.862826   224A      1.866974   225A      1.879379
     226A      1.883561   227A      1.922259   228A      1.926432
     229A      1.962878   230A      1.967079   231A      2.019978
     232A      2.023358   233A      2.024193   234A      2.027567
     235A      2.070890   236A      2.075080   237A      2.104957
     238A      2.109110   239A      2.124652   240A      2.128792
     241A      2.133859   242A      2.138002   243A      2.166596
     244A      2.170739   245A      2.176757   246A      2.180914
     247A      2.264990   248A      2.269178   249A      2.273836
     250A      2.278016   251A      2.298830   252A      2.303001
     253A      2.329958   254A      2.334162   255A      2.415676
     256A      2.419825   257A      2.494900   258A      2.499122
     259A      2.511900   260A      2.516061   261A      2.543350
     262A      2.547618   263A      2.583661   264A      2.587819
     265A      2.631646   266A      2.635804   267A      2.731979
     268A      2.736118   269A      2.744889   270A      2.749079
     271A      2.764991   272A      2.769153   273A      2.792037
     274A      2.796223   275A      2.801312   276A      2.805487
     277A      2.835591   278A      2.839779   279A      2.865096
     280A      2.869305   281A      2.950654   282A      2.954851
     283A      2.978702   284A      2.982888   285A      3.049104
     286A      3.053250   287A      3.067802   288A      3.071962
     289A      3.197057   290A      3.201261   291A      3.206686
     292A      3.210874   293A      3.332706   294A      3.336908
     295A      3.352438   296A      3.356617   297A      3.516422
     298A      3.520591   299A      3.766154   300A      3.770332
     301A      4.106964   302A      4.111125

    Final Occupation by Irrep:
              A
    DOCC [    36 ]

  @DF-RHF Final Energy:  -449.68764677159203

   => Energetics <=

    Nuclear Repulsion Energy =            374.7776469366709762
    One-Electron Energy =               -1351.0707197275141880
    Two-Electron Energy =                 526.6054260192512402
    Total Energy =                       -449.6876467715919716

Computation Completed


Properties will be evaluated at   0.000000,   0.000000,   0.000000 [a0]

Properties computed using the SCF density matrix

  Nuclear Dipole Moment: [e a0]
     X:   279.2319      Y:  -150.1808      Z:  -616.9622

  Electronic Dipole Moment: [e a0]
     X:  -277.6166      Y:   150.1822      Z:   614.2833

  Dipole Moment: [e a0]
     X:     1.6153      Y:     0.0013      Z:    -2.6789     Total:     3.1282

  Dipole Moment: [D]
     X:     4.1056      Y:     0.0034      Z:    -6.8092     Total:     7.9512


*** tstop() called on ds1 at Tue Sep 14 16:17:46 2021
Module time:
	user time   =      25.95 seconds =       0.43 minutes
	system time =       0.76 seconds =       0.01 minutes
	total time  =          5 seconds =       0.08 minutes
Total time:
	user time   =      25.95 seconds =       0.43 minutes
	system time =       0.76 seconds =       0.01 minutes
	total time  =          5 seconds =       0.08 minutes

  //>>>>>>>>>>>>>>>>>>>>>>>>>>>>>>>>>>>//
  //            Monomer A HF           //
  //<<<<<<<<<<<<<<<<<<<<<<<<<<<<<<<<<<<//


*** tstart() called on ds1
*** at Tue Sep 14 16:17:46 2021

   => Loading Basis Set <=

    Name: AUG-CC-PVDZ
    Role: ORBITAL
    Keyword: BASIS
    atoms 1-2, 10-11 entry N          line   218 file /theoryfs2/ds/csargent/miniconda3/envs/cle/share/psi4/basis/aug-cc-pvdz.gbs
    atoms 3-6, 12-15 entry H          line    40 file /theoryfs2/ds/csargent/miniconda3/envs/cle/share/psi4/basis/aug-cc-pvdz.gbs
    atoms 7-9, 16-18 entry C          line   182 file /theoryfs2/ds/csargent/miniconda3/envs/cle/share/psi4/basis/aug-cc-pvdz.gbs


         ---------------------------------------------------------
                                   SCF
               by Justin Turney, Rob Parrish, Andy Simmonett
                          and Daniel G. A. Smith
                              RHF Reference
                        6 Threads,   6675 MiB Core
         ---------------------------------------------------------

  ==> Geometry <==

    Molecular point group: c1
    Full point group: C1

    Geometry (in Bohr), charge = 0, multiplicity = 1:

       Center              X                  Y                   Z               Mass
    ------------   -----------------  -----------------  -----------------  -----------------
         N           -4.293096210000    -3.068374310000     5.305162310000    14.003074004430
         N           -2.158473710000    -2.926272960000     1.720374480000    14.003074004430
         H           -0.025455870000    -6.359035750000     2.220464520000     1.007825032230
         H           -2.685669680000    -6.532602410000     6.614459540000     1.007825032230
         H           -4.743884230000    -0.006090060000     2.756159680000     1.007825032230
         H           -1.410455400000    -2.247231470000     0.000000000000     1.007825032230
         C           -1.437379910000    -5.075048480000     2.940658910000    12.000000000000
         C           -2.769007820000    -5.146099160000     5.135228800000    12.000000000000
         C           -3.859550360000    -1.777281980000     3.210934110000    12.000000000000
      Gh(N)           9.153461620000    -1.103315540000   -18.971053270000    14.003074004430
      Gh(N)          11.288084120000    -1.245416900000   -22.555841100000    14.003074004430
      Gh(H)          13.421101970000     2.187345900000   -22.055751060000     1.007825032230
      Gh(H)          10.760888150000     2.360912550000   -17.661756040000     1.007825032230
      Gh(H)           8.702673610000    -4.165599790000   -21.520055910000     1.007825032230
      Gh(H)          12.036102430000    -1.924458380000   -24.276215580000     1.007825032230
      Gh(C)          12.009177920000     0.903358630000   -21.335556670000    12.000000000000
      Gh(C)          10.677550010000     0.974409310000   -19.140986780000    12.000000000000
      Gh(C)           9.587007470000    -2.394407870000   -21.065281470000    12.000000000000

  Running in c1 symmetry.

  Rotational constants: A =      0.04581  B =      0.00156  C =      0.00152 [cm^-1]
  Rotational constants: A =   1373.23121  B =     46.83517  C =     45.52402 [MHz]
  Nuclear repulsion =  164.086695994184396

  Charge       = 0
  Multiplicity = 1
  Electrons    = 36
  Nalpha       = 18
  Nbeta        = 18

  ==> Algorithm <==

  SCF Algorithm Type is DF.
  DIIS enabled.
  MOM disabled.
  Fractional occupation disabled.
  Guess Type is SAD.
  Energy threshold   = 1.00e-10
  Density threshold  = 1.00e-10
  Integral threshold = 1.00e-12

  ==> Primary Basis <==

  Basis Set: AUG-CC-PVDZ
    Blend: AUG-CC-PVDZ
    Number of shells: 130
    Number of basis functions: 302
    Number of Cartesian functions: 322
    Spherical Harmonics?: true
    Max angular momentum: 2

   => Loading Basis Set <=

    Name: (AUG-CC-PVDZ AUX)
    Role: JKFIT
    Keyword: DF_BASIS_SCF
    atoms 1-2, 10-11 entry N          line   212 file /theoryfs2/ds/csargent/miniconda3/envs/cle/share/psi4/basis/aug-cc-pvdz-jkfit.gbs
    atoms 3-6, 12-15 entry H          line    70 file /theoryfs2/ds/csargent/miniconda3/envs/cle/share/psi4/basis/aug-cc-pvdz-jkfit.gbs
    atoms 7-9, 16-18 entry C          line   154 file /theoryfs2/ds/csargent/miniconda3/envs/cle/share/psi4/basis/aug-cc-pvdz-jkfit.gbs

  ==> Integral Setup <==

  ==> DiskDFJK: Density-Fitted J/K Matrices <==

    J tasked:                  Yes
    K tasked:                  Yes
    wK tasked:                  No
    OpenMP threads:              6
    Integrals threads:           6
    Memory [MiB]:             5006
    Algorithm:                Core
    Integral Cache:           LOAD
    Schwarz Cutoff:          1E-12
    Fitting Condition:       1E-10

   => Auxiliary Basis Set <=

  Basis Set: (AUG-CC-PVDZ AUX)
    Blend: AUG-CC-PVDZ-JKFIT
    Number of shells: 376
    Number of basis functions: 1116
    Number of Cartesian functions: 1290
    Spherical Harmonics?: true
    Max angular momentum: 3

  Minimum eigenvalue in the overlap matrix is 2.1831069884E-05.
  Reciprocal condition number of the overlap matrix is 1.8389422401E-06.
    Using symmetric orthogonalization.

  ==> Pre-Iterations <==

  SCF Guess: Superposition of Atomic Densities via on-the-fly atomic UHF (no occupation information).

   -------------------------
    Irrep   Nso     Nmo
   -------------------------
     A        302     302
   -------------------------
    Total     302     302
   -------------------------

  ==> Iterations <==

                           Total Energy        Delta E     RMS |[F,P]|

   @DF-RHF iter SAD:  -224.55857169423541   -2.24559e+02   0.00000e+00
   @DF-RHF iter   1:  -224.69806465796580   -1.39493e-01   1.63067e-03 DIIS
   @DF-RHF iter   2:  -224.80532027652367   -1.07256e-01   9.27384e-04 DIIS
   @DF-RHF iter   3:  -224.84168817970053   -3.63679e-02   1.74019e-04 DIIS
   @DF-RHF iter   4:  -224.84337343170549   -1.68525e-03   7.98972e-05 DIIS
   @DF-RHF iter   5:  -224.84367501239183   -3.01581e-04   1.26452e-05 DIIS
   @DF-RHF iter   6:  -224.84369234942295   -1.73370e-05   5.61871e-06 DIIS
   @DF-RHF iter   7:  -224.84369543749250   -3.08807e-06   2.19503e-06 DIIS
   @DF-RHF iter   8:  -224.84369616941061   -7.31918e-07   7.77587e-07 DIIS
   @DF-RHF iter   9:  -224.84369628020423   -1.10794e-07   1.87961e-07 DIIS
   @DF-RHF iter  10:  -224.84369628574007   -5.53584e-09   7.33125e-08 DIIS
   @DF-RHF iter  11:  -224.84369628656592   -8.25850e-10   3.26918e-08 DIIS
   @DF-RHF iter  12:  -224.84369628671854   -1.52625e-10   9.70884e-09 DIIS
   @DF-RHF iter  13:  -224.84369628673136   -1.28182e-11   3.58840e-09 DIIS
   @DF-RHF iter  14:  -224.84369628673306   -1.70530e-12   1.58275e-09 DIIS
   @DF-RHF iter  15:  -224.84369628673355   -4.83169e-13   5.27556e-10 DIIS
   @DF-RHF iter  16:  -224.84369628673403   -4.83169e-13   2.34517e-10 DIIS
   @DF-RHF iter  17:  -224.84369628673389    1.42109e-13   4.71138e-11 DIIS
  Energy and wave function converged.


  ==> Post-Iterations <==

    Orbital Energies [Eh]
    ---------------------

    Doubly Occupied:

       1A    -15.637071     2A    -15.551216     3A    -11.300916
       4A    -11.263160     5A    -11.245653     6A     -1.352867
       7A     -1.169098     8A     -1.012098     9A     -0.824390
      10A     -0.803731    11A     -0.760666    12A     -0.610096
      13A     -0.603958    14A     -0.601922    15A     -0.570942
      16A     -0.435483    17A     -0.400464    18A     -0.320685

    Virtual:

      19A      0.020563    20A      0.025349    21A      0.038219
      22A      0.041525    23A      0.041613    24A      0.050044
      25A      0.061818    26A      0.066124    27A      0.074641
      28A      0.084130    29A      0.089096    30A      0.095442
      31A      0.101397    32A      0.120663    33A      0.122862
      34A      0.122949    35A      0.124662    36A      0.125491
      37A      0.125595    38A      0.131963    39A      0.133260
      40A      0.133772    41A      0.136716    42A      0.140942
      43A      0.154671    44A      0.156664    45A      0.158714
      46A      0.171992    47A      0.178189    48A      0.187239
      49A      0.190578    50A      0.206078    51A      0.207467
      52A      0.210177    53A      0.211559    54A      0.218023
      55A      0.220267    56A      0.220350    57A      0.231101
      58A      0.232364    59A      0.241408    60A      0.261605
      61A      0.267728    62A      0.270387    63A      0.277911
      64A      0.297071    65A      0.301765    66A      0.304376
      67A      0.314448    68A      0.317300    69A      0.338199
      70A      0.358137    71A      0.361512    72A      0.370548
      73A      0.373754    74A      0.380033    75A      0.388312
      76A      0.391491    77A      0.397178    78A      0.417031
      79A      0.425326    80A      0.429029    81A      0.433434
      82A      0.438298    83A      0.447230    84A      0.450418
      85A      0.452059    86A      0.466316    87A      0.466416
      88A      0.479036    89A      0.481229    90A      0.486283
      91A      0.488151    92A      0.515346    93A      0.518721
      94A      0.534017    95A      0.536543    96A      0.541138
      97A      0.551714    98A      0.553928    99A      0.556383
     100A      0.568279   101A      0.576453   102A      0.577706
     103A      0.585648   104A      0.594264   105A      0.598948
     106A      0.604420   107A      0.610070   108A      0.616076
     109A      0.616449   110A      0.636565   111A      0.637863
     112A      0.652514   113A      0.669288   114A      0.671340
     115A      0.675769   116A      0.678219   117A      0.681750
     118A      0.683880   119A      0.709081   120A      0.714700
     121A      0.725759   122A      0.734131   123A      0.741238
     124A      0.754292   125A      0.762698   126A      0.767400
     127A      0.790921   128A      0.793606   129A      0.796397
     130A      0.808600   131A      0.809746   132A      0.810538
     133A      0.821428   134A      0.834535   135A      0.857660
     136A      0.860400   137A      0.871428   138A      0.884528
     139A      0.885766   140A      0.889823   141A      0.907790
     142A      0.917654   143A      0.924880   144A      0.954351
     145A      0.966736   146A      0.976975   147A      0.989816
     148A      0.998399   149A      1.010706   150A      1.013515
     151A      1.017405   152A      1.030689   153A      1.057011
     154A      1.076755   155A      1.077368   156A      1.084554
     157A      1.101715   158A      1.114152   159A      1.126984
     160A      1.130696   161A      1.140498   162A      1.149565
     163A      1.167169   164A      1.168978   165A      1.172110
     166A      1.195614   167A      1.208704   168A      1.217445
     169A      1.260723   170A      1.275927   171A      1.288657
     172A      1.294913   173A      1.302539   174A      1.310599
     175A      1.316183   176A      1.345515   177A      1.382301
     178A      1.385036   179A      1.398149   180A      1.451148
     181A      1.492971   182A      1.503328   183A      1.513922
     184A      1.518410   185A      1.539464   186A      1.574127
     187A      1.574285   188A      1.596382   189A      1.652159
     190A      1.659023   191A      1.671507   192A      1.705286
     193A      1.724477   194A      1.782643   195A      1.799069
     196A      1.807063   197A      1.864952   198A      1.881482
     199A      1.924392   200A      1.964990   201A      2.022015
     202A      2.025430   203A      2.037760   204A      2.072991
     205A      2.099185   206A      2.107058   207A      2.117565
     208A      2.126759   209A      2.129515   210A      2.135965
     211A      2.147632   212A      2.168670   213A      2.178815
     214A      2.183216   215A      2.227993   216A      2.250814
     217A      2.267082   218A      2.275963   219A      2.300924
     220A      2.306844   221A      2.325278   222A      2.332082
     223A      2.375002   224A      2.404153   225A      2.411639
     226A      2.417758   227A      2.454010   228A      2.469054
     229A      2.492209   230A      2.496951   231A      2.514027
     232A      2.524090   233A      2.543576   234A      2.545391
     235A      2.575100   236A      2.585745   237A      2.598060
     238A      2.633765   239A      2.694627   240A      2.734095
     241A      2.747025   242A      2.767090   243A      2.788596
     244A      2.794149   245A      2.803446   246A      2.827069
     247A      2.837642   248A      2.867213   249A      2.893920
     250A      2.931590   251A      2.947773   252A      2.952749
     253A      2.980863   254A      3.041797   255A      3.051201
     256A      3.069910   257A      3.074489   258A      3.130222
     259A      3.157945   260A      3.181139   261A      3.199174
     262A      3.208796   263A      3.211576   264A      3.334816
     265A      3.339165   266A      3.353057   267A      3.354575
     268A      3.361232   269A      3.457029   270A      3.492539
     271A      3.518552   272A      3.568120   273A      3.606965
     274A      3.705601   275A      3.725036   276A      3.768295
     277A      3.776738   278A      3.796652   279A      3.856285
     280A      3.868977   281A      4.002121   282A      4.109026
     283A      4.211139   284A      4.635031   285A      4.637064
     286A      4.694203   287A      4.770134   288A      4.878470
     289A      5.019735   290A      5.252843   291A      5.371471
     292A      5.492999   293A      5.608723   294A      5.714743
     295A      5.882235   296A      6.088207   297A      6.196427
     298A     18.253801   299A     18.588451   300A     19.298785
     301A     25.309938   302A     25.451801

    Final Occupation by Irrep:
              A
    DOCC [    18 ]

  @DF-RHF Final Energy:  -224.84369628673389

   => Energetics <=

    Nuclear Repulsion Energy =            164.0866959941843959
    One-Electron Energy =                -628.9319563461193638
    Two-Electron Energy =                 240.0015640652010518
    Total Energy =                       -224.8436962867338877

Computation Completed


Properties will be evaluated at   0.000000,   0.000000,   0.000000 [a0]

Properties computed using the SCF density matrix

  Nuclear Dipole Moment: [e a0]
     X:  -102.4221      Y:  -129.0981      Z:   128.4908

  Electronic Dipole Moment: [e a0]
     X:   103.2259      Y:   129.2613      Z:  -129.8232

  Dipole Moment: [e a0]
     X:     0.8038      Y:     0.1633      Z:    -1.3324     Total:     1.5646

  Dipole Moment: [D]
     X:     2.0431      Y:     0.4150      Z:    -3.3867     Total:     3.9769


*** tstop() called on ds1 at Tue Sep 14 16:17:50 2021
Module time:
	user time   =      17.31 seconds =       0.29 minutes
	system time =       0.48 seconds =       0.01 minutes
	total time  =          4 seconds =       0.07 minutes
Total time:
	user time   =      43.29 seconds =       0.72 minutes
	system time =       1.24 seconds =       0.02 minutes
	total time  =          9 seconds =       0.15 minutes

  //>>>>>>>>>>>>>>>>>>>>>>>>>>>>>>>>>>>//
  //            Monomer B HF           //
  //<<<<<<<<<<<<<<<<<<<<<<<<<<<<<<<<<<<//


*** tstart() called on ds1
*** at Tue Sep 14 16:17:50 2021

   => Loading Basis Set <=

    Name: AUG-CC-PVDZ
    Role: ORBITAL
    Keyword: BASIS
    atoms 1-2, 10-11 entry N          line   218 file /theoryfs2/ds/csargent/miniconda3/envs/cle/share/psi4/basis/aug-cc-pvdz.gbs
    atoms 3-6, 12-15 entry H          line    40 file /theoryfs2/ds/csargent/miniconda3/envs/cle/share/psi4/basis/aug-cc-pvdz.gbs
    atoms 7-9, 16-18 entry C          line   182 file /theoryfs2/ds/csargent/miniconda3/envs/cle/share/psi4/basis/aug-cc-pvdz.gbs


         ---------------------------------------------------------
                                   SCF
               by Justin Turney, Rob Parrish, Andy Simmonett
                          and Daniel G. A. Smith
                              RHF Reference
                        6 Threads,   6675 MiB Core
         ---------------------------------------------------------

  ==> Geometry <==

    Molecular point group: c1
    Full point group: C1

    Geometry (in Bohr), charge = 0, multiplicity = 1:

       Center              X                  Y                   Z               Mass
    ------------   -----------------  -----------------  -----------------  -----------------
      Gh(N)          -4.293096210000    -3.068374310000     5.305162310000    14.003074004430
      Gh(N)          -2.158473710000    -2.926272960000     1.720374480000    14.003074004430
      Gh(H)          -0.025455870000    -6.359035750000     2.220464520000     1.007825032230
      Gh(H)          -2.685669680000    -6.532602410000     6.614459540000     1.007825032230
      Gh(H)          -4.743884230000    -0.006090060000     2.756159680000     1.007825032230
      Gh(H)          -1.410455400000    -2.247231470000     0.000000000000     1.007825032230
      Gh(C)          -1.437379910000    -5.075048480000     2.940658910000    12.000000000000
      Gh(C)          -2.769007820000    -5.146099160000     5.135228800000    12.000000000000
      Gh(C)          -3.859550360000    -1.777281980000     3.210934110000    12.000000000000
         N            9.153461620000    -1.103315540000   -18.971053270000    14.003074004430
         N           11.288084120000    -1.245416900000   -22.555841100000    14.003074004430
         H           13.421101970000     2.187345900000   -22.055751060000     1.007825032230
         H           10.760888150000     2.360912550000   -17.661756040000     1.007825032230
         H            8.702673610000    -4.165599790000   -21.520055910000     1.007825032230
         H           12.036102430000    -1.924458380000   -24.276215580000     1.007825032230
         C           12.009177920000     0.903358630000   -21.335556670000    12.000000000000
         C           10.677550010000     0.974409310000   -19.140986780000    12.000000000000
         C            9.587007470000    -2.394407870000   -21.065281470000    12.000000000000

  Running in c1 symmetry.

  Rotational constants: A =      0.04581  B =      0.00156  C =      0.00152 [cm^-1]
  Rotational constants: A =   1373.23121  B =     46.83517  C =     45.52402 [MHz]
  Nuclear repulsion =  164.086695967359674

  Charge       = 0
  Multiplicity = 1
  Electrons    = 36
  Nalpha       = 18
  Nbeta        = 18

  ==> Algorithm <==

  SCF Algorithm Type is DF.
  DIIS enabled.
  MOM disabled.
  Fractional occupation disabled.
  Guess Type is SAD.
  Energy threshold   = 1.00e-10
  Density threshold  = 1.00e-10
  Integral threshold = 1.00e-12

  ==> Primary Basis <==

  Basis Set: AUG-CC-PVDZ
    Blend: AUG-CC-PVDZ
    Number of shells: 130
    Number of basis functions: 302
    Number of Cartesian functions: 322
    Spherical Harmonics?: true
    Max angular momentum: 2

   => Loading Basis Set <=

    Name: (AUG-CC-PVDZ AUX)
    Role: JKFIT
    Keyword: DF_BASIS_SCF
    atoms 1-2, 10-11 entry N          line   212 file /theoryfs2/ds/csargent/miniconda3/envs/cle/share/psi4/basis/aug-cc-pvdz-jkfit.gbs
    atoms 3-6, 12-15 entry H          line    70 file /theoryfs2/ds/csargent/miniconda3/envs/cle/share/psi4/basis/aug-cc-pvdz-jkfit.gbs
    atoms 7-9, 16-18 entry C          line   154 file /theoryfs2/ds/csargent/miniconda3/envs/cle/share/psi4/basis/aug-cc-pvdz-jkfit.gbs

  ==> Integral Setup <==

  ==> DiskDFJK: Density-Fitted J/K Matrices <==

    J tasked:                  Yes
    K tasked:                  Yes
    wK tasked:                  No
    OpenMP threads:              6
    Integrals threads:           6
    Memory [MiB]:             5006
    Algorithm:                Core
    Integral Cache:           LOAD
    Schwarz Cutoff:          1E-12
    Fitting Condition:       1E-10

   => Auxiliary Basis Set <=

  Basis Set: (AUG-CC-PVDZ AUX)
    Blend: AUG-CC-PVDZ-JKFIT
    Number of shells: 376
    Number of basis functions: 1116
    Number of Cartesian functions: 1290
    Spherical Harmonics?: true
    Max angular momentum: 3

  Minimum eigenvalue in the overlap matrix is 2.1831069884E-05.
  Reciprocal condition number of the overlap matrix is 1.8389422401E-06.
    Using symmetric orthogonalization.

  ==> Pre-Iterations <==

  SCF Guess: Superposition of Atomic Densities via on-the-fly atomic UHF (no occupation information).

   -------------------------
    Irrep   Nso     Nmo
   -------------------------
     A        302     302
   -------------------------
    Total     302     302
   -------------------------

  ==> Iterations <==

                           Total Energy        Delta E     RMS |[F,P]|

   @DF-RHF iter SAD:  -224.55857169500527   -2.24559e+02   0.00000e+00
   @DF-RHF iter   1:  -224.69806465561021   -1.39493e-01   1.63067e-03 DIIS
   @DF-RHF iter   2:  -224.80532027680960   -1.07256e-01   9.27384e-04 DIIS
   @DF-RHF iter   3:  -224.84168818572209   -3.63679e-02   1.74019e-04 DIIS
   @DF-RHF iter   4:  -224.84337343796997   -1.68525e-03   7.98972e-05 DIIS
   @DF-RHF iter   5:  -224.84367501871850   -3.01581e-04   1.26452e-05 DIIS
   @DF-RHF iter   6:  -224.84369235575340   -1.73370e-05   5.61871e-06 DIIS
   @DF-RHF iter   7:  -224.84369544382341   -3.08807e-06   2.19503e-06 DIIS
   @DF-RHF iter   8:  -224.84369617574146   -7.31918e-07   7.77587e-07 DIIS
   @DF-RHF iter   9:  -224.84369628653604   -1.10795e-07   1.87961e-07 DIIS
   @DF-RHF iter  10:  -224.84369629207157   -5.53553e-09   7.33126e-08 DIIS
   @DF-RHF iter  11:  -224.84369629289768   -8.26105e-10   3.26918e-08 DIIS
   @DF-RHF iter  12:  -224.84369629304999   -1.52312e-10   9.70884e-09 DIIS
   @DF-RHF iter  13:  -224.84369629306320   -1.32161e-11   3.58840e-09 DIIS
   @DF-RHF iter  14:  -224.84369629306494   -1.73372e-12   1.58275e-09 DIIS
   @DF-RHF iter  15:  -224.84369629306502   -8.52651e-14   5.27556e-10 DIIS
   @DF-RHF iter  16:  -224.84369629306542   -3.97904e-13   2.34517e-10 DIIS
   @DF-RHF iter  17:  -224.84369629306525    1.70530e-13   4.71138e-11 DIIS
  Energy and wave function converged.


  ==> Post-Iterations <==

    Orbital Energies [Eh]
    ---------------------

    Doubly Occupied:

       1A    -15.637071     2A    -15.551216     3A    -11.300916
       4A    -11.263160     5A    -11.245653     6A     -1.352867
       7A     -1.169098     8A     -1.012098     9A     -0.824390
      10A     -0.803731    11A     -0.760666    12A     -0.610096
      13A     -0.603958    14A     -0.601922    15A     -0.570942
      16A     -0.435483    17A     -0.400464    18A     -0.320685

    Virtual:

      19A      0.024720    20A      0.025388    21A      0.041577
      22A      0.042082    23A      0.045869    24A      0.050068
      25A      0.061754    26A      0.070616    27A      0.078537
      28A      0.088084    29A      0.089096    30A      0.099748
      31A      0.101606    32A      0.120827    33A      0.125576
      34A      0.126802    35A      0.126997    36A      0.128766
      37A      0.129484    38A      0.133471    39A      0.133705
      40A      0.136151    41A      0.140542    42A      0.140942
      43A      0.156500    44A      0.158684    45A      0.158783
      46A      0.172148    47A      0.178189    48A      0.187225
      49A      0.194864    50A      0.210112    51A      0.211458
      52A      0.211563    53A      0.214332    54A      0.220256
      55A      0.222183    56A      0.224617    57A      0.232248
      58A      0.235726    59A      0.241408    60A      0.261617
      61A      0.267804    62A      0.274487    63A      0.277911
      64A      0.301342    65A      0.301746    66A      0.308605
      67A      0.314446    68A      0.321366    69A      0.338214
      70A      0.361487    71A      0.362235    72A      0.370769
      73A      0.377706    74A      0.379850    75A      0.388293
      76A      0.395538    77A      0.397122    78A      0.417032
      79A      0.429000    80A      0.429696    81A      0.437522
      82A      0.442311    83A      0.451399    84A      0.452059
      85A      0.454558    86A      0.466350    87A      0.470465
      88A      0.481216    89A      0.483151    90A      0.486283
      91A      0.488160    92A      0.519420    93A      0.522944
      94A      0.538150    95A      0.540677    96A      0.545323
      97A      0.551717    98A      0.556421    99A      0.558200
     100A      0.568309   101A      0.576502   102A      0.581850
     103A      0.589708   104A      0.594250   105A      0.598942
     106A      0.608511   107A      0.614243   108A      0.616080
     109A      0.620657   110A      0.636553   111A      0.641932
     112A      0.652509   113A      0.669283   114A      0.671338
     115A      0.678192   116A      0.679886   117A      0.683875
     118A      0.685910   119A      0.713202   120A      0.714703
     121A      0.725775   122A      0.738218   123A      0.741261
     124A      0.758437   125A      0.762699   126A      0.767403
     127A      0.790936   128A      0.793606   129A      0.800491
     130A      0.809756   131A      0.812674   132A      0.814713
     133A      0.825435   134A      0.838611   135A      0.860365
     136A      0.861811   137A      0.871425   138A      0.885770
     139A      0.888723   140A      0.889823   141A      0.911928
     142A      0.921784   143A      0.929025   144A      0.954351
     145A      0.970985   146A      0.976966   147A      0.993926
     148A      0.998360   149A      1.010706   150A      1.017404
     151A      1.017568   152A      1.030676   153A      1.061188
     154A      1.077381   155A      1.080901   156A      1.084560
     157A      1.105831   158A      1.118276   159A      1.127000
     160A      1.134885   161A      1.140498   162A      1.149567
     163A      1.167172   164A      1.173029   165A      1.176261
     166A      1.199759   167A      1.212880   168A      1.217445
     169A      1.260722   170A      1.280138   171A      1.292834
     172A      1.299111   173A      1.302544   174A      1.314776
     175A      1.320373   176A      1.349741   177A      1.385028
     178A      1.386480   179A      1.398146   180A      1.451144
     181A      1.497206   182A      1.503292   183A      1.518077
     184A      1.518410   185A      1.543612   186A      1.574127
     187A      1.574323   188A      1.596383   189A      1.652159
     190A      1.663177   191A      1.671579   192A      1.705292
     193A      1.724477   194A      1.782643   195A      1.799074
     196A      1.807064   197A      1.864965   198A      1.881478
     199A      1.924391   200A      1.964988   201A      2.022006
     202A      2.025431   203A      2.041871   204A      2.072981
     205A      2.103255   206A      2.107055   207A      2.121643
     208A      2.126760   209A      2.133550   210A      2.135966
     211A      2.151700   212A      2.168672   213A      2.178819
     214A      2.187247   215A      2.232098   216A      2.254918
     217A      2.267082   218A      2.275970   219A      2.300924
     220A      2.310903   221A      2.329386   222A      2.332075
     223A      2.379106   224A      2.408440   225A      2.415749
     226A      2.417758   227A      2.458110   228A      2.473198
     229A      2.496331   230A      2.496920   231A      2.514038
     232A      2.528218   233A      2.545345   234A      2.547681
     235A      2.579218   236A      2.585751   237A      2.602171
     238A      2.633766   239A      2.698772   240A      2.734095
     241A      2.747025   242A      2.767092   243A      2.792724
     244A      2.794149   245A      2.803455   246A      2.831123
     247A      2.837641   248A      2.867213   249A      2.898074
     250A      2.935667   251A      2.951932   252A      2.952740
     253A      2.980862   254A      3.045934   255A      3.051203
     256A      3.069912   257A      3.078634   258A      3.134409
     259A      3.162062   260A      3.185259   261A      3.199166
     262A      3.208795   263A      3.215699   264A      3.334816
     265A      3.343305   266A      3.354576   267A      3.357228
     268A      3.365333   269A      3.461199   270A      3.496729
     271A      3.518558   272A      3.572306   273A      3.611162
     274A      3.709791   275A      3.729232   276A      3.768294
     277A      3.780912   278A      3.800857   279A      3.860427
     280A      3.873163   281A      4.006297   282A      4.109030
     283A      4.215320   284A      4.639177   285A      4.641226
     286A      4.698341   287A      4.774315   288A      4.882626
     289A      5.023879   290A      5.257007   291A      5.375601
     292A      5.497151   293A      5.612840   294A      5.718891
     295A      5.886379   296A      6.092407   297A      6.200609
     298A     18.257872   299A     18.592593   300A     19.302843
     301A     25.314165   302A     25.455992

    Final Occupation by Irrep:
              A
    DOCC [    18 ]

  @DF-RHF Final Energy:  -224.84369629306525

   => Energetics <=

    Nuclear Repulsion Energy =            164.0866959673596739
    One-Electron Energy =                -628.9319564143288517
    Two-Electron Energy =                 240.0015641539039279
    Total Energy =                       -224.8436962930652498

Computation Completed


Properties will be evaluated at   0.000000,   0.000000,   0.000000 [a0]

Properties computed using the SCF density matrix

  Nuclear Dipole Moment: [e a0]
     X:   381.6540      Y:   -21.0828      Z:  -745.4530

  Electronic Dipole Moment: [e a0]
     X:  -380.8502      Y:    20.9195      Z:   744.1206

  Dipole Moment: [e a0]
     X:     0.8038      Y:    -0.1633      Z:    -1.3324     Total:     1.5646

  Dipole Moment: [D]
     X:     2.0431      Y:    -0.4150      Z:    -3.3867     Total:     3.9769


*** tstop() called on ds1 at Tue Sep 14 16:17:54 2021
Module time:
	user time   =      16.95 seconds =       0.28 minutes
	system time =       0.35 seconds =       0.01 minutes
	total time  =          4 seconds =       0.07 minutes
Total time:
	user time   =      60.35 seconds =       1.01 minutes
	system time =       1.59 seconds =       0.03 minutes
	total time  =         13 seconds =       0.22 minutes
  Constructing Basis Sets for SAPT...

   => Loading Basis Set <=

    Name: (AUG-CC-PVDZ AUX)
    Role: RIFIT
    Keyword: DF_BASIS_SAPT
    atoms 1-2, 10-11 entry N          line   158 file /theoryfs2/ds/csargent/miniconda3/envs/cle/share/psi4/basis/aug-cc-pvdz-ri.gbs
    atoms 3-6, 12-15 entry H          line    30 file /theoryfs2/ds/csargent/miniconda3/envs/cle/share/psi4/basis/aug-cc-pvdz-ri.gbs
    atoms 7-9, 16-18 entry C          line   112 file /theoryfs2/ds/csargent/miniconda3/envs/cle/share/psi4/basis/aug-cc-pvdz-ri.gbs


  //>>>>>>>>>>>>>>>>>>>>>>>>>>>>>>>>>>>//
  //               SAPT0               //
  //<<<<<<<<<<<<<<<<<<<<<<<<<<<<<<<<<<<//


*** tstart() called on ds1
*** at Tue Sep 14 16:17:54 2021

        SAPT0
    Ed Hohenstein
     6 June 2009

      Orbital Information
  --------------------------
    NSO        =       302
    NMO        =       302
    NRI        =       904
    NOCC A     =        18
    NOCC B     =        18
    FOCC A     =         5
    FOCC B     =         5
    NVIR A     =       284
    NVIR B     =       284

    Elst10,r            =    -0.000252842362 [Eh]
    Exch10              =     0.000000000011 [Eh]
    Exch10 (S^2)        =     0.000000000011 [Eh]

    Iter     Energy [mEh]          dE [mEh]         Residual      Time [s]
       1      -0.00059990       0.000599896       0.270881933             0
       2      -0.00055873      -0.000041161       0.071372029             0
       3      -0.00062135       0.000062610       0.021748320             0
       4      -0.00062618       0.000004831       0.007852019             0
       5      -0.00062492      -0.000001258       0.002922981             1
       6      -0.00062431      -0.000000605       0.000822500             1
       7      -0.00062454       0.000000222       0.000356603             1
       8      -0.00062459       0.000000049       0.000127175             1
       9      -0.00062455      -0.000000038       0.000039670             1
      10      -0.00062455      -0.000000000       0.000012817             1
      11      -0.00062455       0.000000003       0.000003094             1
      12      -0.00062455       0.000000000       0.000000979             1

    CHF Iterations converged


    Iter     Energy [mEh]          dE [mEh]         Residual      Time [s]
       1      -0.00064658       0.000646581       0.303437064             1
       2      -0.00058913      -0.000057453       0.073300484             1
       3      -0.00066150       0.000072370       0.021469535             1
       4      -0.00066522       0.000003725       0.007941935             1
       5      -0.00066392      -0.000001302       0.002681285             1
       6      -0.00066341      -0.000000511       0.000661039             1
       7      -0.00066349       0.000000083       0.000303317             1
       8      -0.00066357       0.000000081       0.000082055             1
       9      -0.00066355      -0.000000021       0.000036210             2
      10      -0.00066355      -0.000000003       0.000011462             2
      11      -0.00066355       0.000000003       0.000003327             2
      12      -0.00066355       0.000000000       0.000001422             2
      13      -0.00066355      -0.000000000       0.000000435             2

    CHF Iterations converged

    Ind20,r (A<-B)      =    -0.000000624551 [Eh]
    Ind20,r (B<-A)      =    -0.000000663552 [Eh]
    Ind20,r             =    -0.000001288103 [Eh]
    Exch-Ind20,r (A<-B) =     0.000000000008 [Eh]
    Exch-Ind20,r (B<-A) =     0.000000000015 [Eh]
    Exch-Ind20,r        =     0.000000000023 [Eh]
    Disp20              =    -0.000003219049 [Eh]
    Disp20 (SS)         =    -0.000001609525 [Eh]
    Disp20 (OS)         =    -0.000001609525 [Eh]
    Exch-Disp20         =     0.000000000002 [Eh]
    Exch-Disp20 (SS)    =     0.000000000001 [Eh]
    Exch-Disp20 (OS)    =     0.000000000000 [Eh]

    SAPT Results
  --------------------------------------------------------------------------------------------------------
    Electrostatics                 -0.25284236 [mEh]      -0.15866098 [kcal/mol]      -0.66383753 [kJ/mol]
      Elst10,r                     -0.25284236 [mEh]      -0.15866098 [kcal/mol]      -0.66383753 [kJ/mol]

    Exchange                        0.00000001 [mEh]       0.00000001 [kcal/mol]       0.00000003 [kJ/mol]
      Exch10                        0.00000001 [mEh]       0.00000001 [kcal/mol]       0.00000003 [kJ/mol]
      Exch10(S^2)                   0.00000001 [mEh]       0.00000001 [kcal/mol]       0.00000003 [kJ/mol]

    Induction                      -0.00134944 [mEh]      -0.00084679 [kcal/mol]      -0.00354296 [kJ/mol]
      Ind20,r                      -0.00128810 [mEh]      -0.00080830 [kcal/mol]      -0.00338191 [kJ/mol]
      Exch-Ind20,r                  0.00000002 [mEh]       0.00000001 [kcal/mol]       0.00000006 [kJ/mol]
      delta HF,r (2)               -0.00006136 [mEh]      -0.00003851 [kcal/mol]      -0.00016111 [kJ/mol]

    Dispersion                     -0.00321905 [mEh]      -0.00201998 [kcal/mol]      -0.00845161 [kJ/mol]
      Disp20                       -0.00321905 [mEh]      -0.00201998 [kcal/mol]      -0.00845161 [kJ/mol]
      Exch-Disp20                   0.00000000 [mEh]       0.00000000 [kcal/mol]       0.00000000 [kJ/mol]
      Disp20 (SS)                  -0.00160952 [mEh]      -0.00100999 [kcal/mol]      -0.00422581 [kJ/mol]
      Disp20 (OS)                  -0.00160952 [mEh]      -0.00100999 [kcal/mol]      -0.00422581 [kJ/mol]
      Exch-Disp20 (SS)              0.00000000 [mEh]       0.00000000 [kcal/mol]       0.00000000 [kJ/mol]
      Exch-Disp20 (OS)              0.00000000 [mEh]       0.00000000 [kcal/mol]       0.00000000 [kJ/mol]

  Total HF                         -0.25419179 [mEh]      -0.15950776 [kcal/mol]      -0.66738046 [kJ/mol]
  Total SAPT0                      -0.25741084 [mEh]      -0.16152774 [kcal/mol]      -0.67583207 [kJ/mol]

  Special recipe for scaled SAPT0 (see Manual):
    Electrostatics sSAPT0          -0.25284236 [mEh]      -0.15866098 [kcal/mol]      -0.66383753 [kJ/mol]
    Exchange sSAPT0                 0.00000001 [mEh]       0.00000001 [kcal/mol]       0.00000003 [kJ/mol]
    Induction sSAPT0               -0.00134944 [mEh]      -0.00084679 [kcal/mol]      -0.00354296 [kJ/mol]
    Dispersion sSAPT0              -0.00321905 [mEh]      -0.00201998 [kcal/mol]      -0.00845161 [kJ/mol]
  Total sSAPT0                     -0.25741084 [mEh]      -0.16152774 [kcal/mol]      -0.67583207 [kJ/mol]
  --------------------------------------------------------------------------------------------------------

*** tstop() called on ds1 at Tue Sep 14 16:18:03 2021
Module time:
	user time   =      45.51 seconds =       0.76 minutes
	system time =       3.95 seconds =       0.07 minutes
	total time  =          9 seconds =       0.15 minutes
Total time:
	user time   =     106.65 seconds =       1.78 minutes
	system time =       5.55 seconds =       0.09 minutes
	total time  =         22 seconds =       0.37 minutes


Warning! sapt0 does not have an associated derived wavefunction.The returned wavefunction is the dimer SCF wavefunction.


    Psi4 stopped on: Tuesday, 14 September 2021 04:18PM
    Psi4 wall time for execution: 0:00:22.72

*** Psi4 exiting successfully. Buy a developer a beer!
