
    -----------------------------------------------------------------------
          Psi4: An Open-Source Ab Initio Electronic Structure Package
                               Psi4 1.4rc3

                         Git: Rev {HEAD} 080dba6


    D. G. A. Smith, L. A. Burns, A. C. Simmonett, R. M. Parrish,
    M. C. Schieber, R. Galvelis, P. Kraus, H. Kruse, R. Di Remigio,
    A. Alenaizan, A. M. James, S. Lehtola, J. P. Misiewicz, M. Scheurer,
    R. A. Shaw, J. B. Schriber, Y. Xie, Z. L. Glick, D. A. Sirianni,
    J. S. O'Brien, J. M. Waldrop, A. Kumar, E. G. Hohenstein,
    B. P. Pritchard, B. R. Brooks, H. F. Schaefer III, A. Yu. Sokolov,
    K. Patkowski, A. E. DePrince III, U. Bozkaya, R. A. King,
    F. A. Evangelista, J. M. Turney, T. D. Crawford, C. D. Sherrill,
    J. Chem. Phys. 152(18) 184108 (2020). https://doi.org/10.1063/5.0006002

                            Additional Code Authors
    E. T. Seidl, C. L. Janssen, E. F. Valeev, M. L. Leininger,
    J. F. Gonthier, R. M. Richard, H. R. McAlexander, M. Saitow, X. Wang,
    P. Verma, and M. H. Lechner

             Previous Authors, Complete List of Code Contributors,
                       and Citations for Specific Modules
    https://github.com/psi4/psi4/blob/master/codemeta.json
    https://github.com/psi4/psi4/graphs/contributors
    http://psicode.org/psi4manual/master/introduction.html#citing-psifour

    -----------------------------------------------------------------------


    Psi4 started on: Tuesday, 14 September 2021 04:29PM

    Process ID: 32650
    Host:       ds1
    PSIDATADIR: /theoryfs2/ds/csargent/miniconda3/envs/cle/share/psi4
    Memory:     500.0 MiB
    Threads:    6

  ==> Input File <==

--------------------------------------------------------------------------
# PSI4 file produced by CrystaLattE

# Generated from:               imidazole.xyz
# Psithon input for N-mer:      2mer-0+242
# Number of atoms per monomer:  [9, 9]
# Number of replicas:           1
# COM priority:                 3.899968684656e-05
# Minimum COM separations:      15.604
# Separation priority:          9.501050983044e-05
# Minimum monomer separations:  11.597
# Cutoff priority:              4.335396919847e-06
# Nuclear repulsion energy:     372.165633935588

memory 7 GB

molecule Dimer_0_242 {
  N           -4.29309621      -3.06837431       5.30516231
  N           -2.15847371      -2.92627296       1.72037448
  H           -0.02545587      -6.35903575       2.22046452
  H           -2.68566968      -6.53260241       6.61445954
  H           -4.74388423      -0.00609006       2.75615968
  H           -1.41045540      -2.24723147       0.00000000
  C           -1.43737991      -5.07504848       2.94065891
  C           -2.76900782      -5.14609916       5.13522880
  C           -3.85955036      -1.77728198       3.21093411
--
  N            5.99801847     -16.32846099      27.67488576
  N            3.86339597     -16.47056235      31.25967360
  H            1.73037812     -13.03779955      30.75958356
  H            4.39059193     -12.86423289      26.36558854
  H            6.44880648     -19.39074524      30.22388840
  H            3.11537766     -17.14960383      32.98004808
  C            3.14230217     -14.32178682      30.03938916
  C            4.47393007     -14.25073614      27.84481927
  C            5.56447261     -17.61955332      29.76911396
units = au
no_com
no_reorient
}

set {
  e_convergence 10
  d_convergence 10
  scf_type df
  mp2_type df
  cc_type df
  freeze_core true
}

energy('sapt0/aug-cc-pvdz')

--------------------------------------------------------------------------

  Memory set to   6.519 GiB by Python driver.

Scratch directory: /scratch/csargent/psi4.31446.79897/

Scratch directory: /scratch/csargent/psi4.31446.79897/

  //>>>>>>>>>>>>>>>>>>>>>>>>>>>>>>>>>>>//
  //              Dimer HF             //
  //<<<<<<<<<<<<<<<<<<<<<<<<<<<<<<<<<<<//


*** tstart() called on ds1
*** at Tue Sep 14 16:29:58 2021

   => Loading Basis Set <=

    Name: AUG-CC-PVDZ
    Role: ORBITAL
    Keyword: BASIS
    atoms 1-2, 10-11 entry N          line   218 file /theoryfs2/ds/csargent/miniconda3/envs/cle/share/psi4/basis/aug-cc-pvdz.gbs
    atoms 3-6, 12-15 entry H          line    40 file /theoryfs2/ds/csargent/miniconda3/envs/cle/share/psi4/basis/aug-cc-pvdz.gbs
    atoms 7-9, 16-18 entry C          line   182 file /theoryfs2/ds/csargent/miniconda3/envs/cle/share/psi4/basis/aug-cc-pvdz.gbs


         ---------------------------------------------------------
                                   SCF
               by Justin Turney, Rob Parrish, Andy Simmonett
                          and Daniel G. A. Smith
                              RHF Reference
                        6 Threads,   6675 MiB Core
         ---------------------------------------------------------

  ==> Geometry <==

    Molecular point group: c1
    Full point group: C1

    Geometry (in Bohr), charge = 0, multiplicity = 1:

       Center              X                  Y                   Z               Mass
    ------------   -----------------  -----------------  -----------------  -----------------
         N           -4.293096210000    -3.068374310000     5.305162310000    14.003074004430
         N           -2.158473710000    -2.926272960000     1.720374480000    14.003074004430
         H           -0.025455870000    -6.359035750000     2.220464520000     1.007825032230
         H           -2.685669680000    -6.532602410000     6.614459540000     1.007825032230
         H           -4.743884230000    -0.006090060000     2.756159680000     1.007825032230
         H           -1.410455400000    -2.247231470000     0.000000000000     1.007825032230
         C           -1.437379910000    -5.075048480000     2.940658910000    12.000000000000
         C           -2.769007820000    -5.146099160000     5.135228800000    12.000000000000
         C           -3.859550360000    -1.777281980000     3.210934110000    12.000000000000
         N            5.998018470000   -16.328460990000    27.674885760000    14.003074004430
         N            3.863395970000   -16.470562350000    31.259673600000    14.003074004430
         H            1.730378120000   -13.037799550000    30.759583560000     1.007825032230
         H            4.390591930000   -12.864232890000    26.365588540000     1.007825032230
         H            6.448806480000   -19.390745240000    30.223888400000     1.007825032230
         H            3.115377660000   -17.149603830000    32.980048080000     1.007825032230
         C            3.142302170000   -14.321786820000    30.039389160000    12.000000000000
         C            4.473930070000   -14.250736140000    27.844819270000    12.000000000000
         C            5.564472610000   -17.619553320000    29.769113960000    12.000000000000

  Running in c1 symmetry.

  Rotational constants: A =      0.04433  B =      0.00076  C =      0.00075 [cm^-1]
  Rotational constants: A =   1328.99862  B =     22.79526  C =     22.58174 [MHz]
  Nuclear repulsion =  372.165633947814740

  Charge       = 0
  Multiplicity = 1
  Electrons    = 72
  Nalpha       = 36
  Nbeta        = 36

  ==> Algorithm <==

  SCF Algorithm Type is DF.
  DIIS enabled.
  MOM disabled.
  Fractional occupation disabled.
  Guess Type is SAD.
  Energy threshold   = 1.00e-10
  Density threshold  = 1.00e-10
  Integral threshold = 1.00e-12

  ==> Primary Basis <==

  Basis Set: AUG-CC-PVDZ
    Blend: AUG-CC-PVDZ
    Number of shells: 130
    Number of basis functions: 302
    Number of Cartesian functions: 322
    Spherical Harmonics?: true
    Max angular momentum: 2

   => Loading Basis Set <=

    Name: (AUG-CC-PVDZ AUX)
    Role: JKFIT
    Keyword: DF_BASIS_SCF
    atoms 1-2, 10-11 entry N          line   212 file /theoryfs2/ds/csargent/miniconda3/envs/cle/share/psi4/basis/aug-cc-pvdz-jkfit.gbs
    atoms 3-6, 12-15 entry H          line    70 file /theoryfs2/ds/csargent/miniconda3/envs/cle/share/psi4/basis/aug-cc-pvdz-jkfit.gbs
    atoms 7-9, 16-18 entry C          line   154 file /theoryfs2/ds/csargent/miniconda3/envs/cle/share/psi4/basis/aug-cc-pvdz-jkfit.gbs

  ==> Integral Setup <==

  ==> DiskDFJK: Density-Fitted J/K Matrices <==

    J tasked:                  Yes
    K tasked:                  Yes
    wK tasked:                  No
    OpenMP threads:              6
    Integrals threads:           6
    Memory [MiB]:             5006
    Algorithm:                Core
    Integral Cache:           SAVE
    Schwarz Cutoff:          1E-12
    Fitting Condition:       1E-10

   => Auxiliary Basis Set <=

  Basis Set: (AUG-CC-PVDZ AUX)
    Blend: AUG-CC-PVDZ-JKFIT
    Number of shells: 376
    Number of basis functions: 1116
    Number of Cartesian functions: 1290
    Spherical Harmonics?: true
    Max angular momentum: 3

  Minimum eigenvalue in the overlap matrix is 2.1536287011E-05.
  Reciprocal condition number of the overlap matrix is 1.8141124577E-06.
    Using symmetric orthogonalization.

  ==> Pre-Iterations <==

  SCF Guess: Superposition of Atomic Densities via on-the-fly atomic UHF (no occupation information).

   -------------------------
    Irrep   Nso     Nmo
   -------------------------
     A        302     302
   -------------------------
    Total     302     302
   -------------------------

  ==> Iterations <==

                           Total Energy        Delta E     RMS |[F,P]|

   @DF-RHF iter SAD:  -449.11714338827915   -4.49117e+02   0.00000e+00
   @DF-RHF iter   1:  -449.39607668045880   -2.78933e-01   2.30635e-03 DIIS
   @DF-RHF iter   2:  -449.61056933386919   -2.14493e-01   1.31218e-03 DIIS
   @DF-RHF iter   3:  -449.68338019406434   -7.28109e-02   2.46291e-04 DIIS
   @DF-RHF iter   4:  -449.68675397289712   -3.37378e-03   1.13107e-04 DIIS
   @DF-RHF iter   5:  -449.68735832841946   -6.04356e-04   1.78802e-05 DIIS
   @DF-RHF iter   6:  -449.68739298861379   -3.46602e-05   7.94811e-06 DIIS
   @DF-RHF iter   7:  -449.68739916465034   -6.17604e-06   3.10571e-06 DIIS
   @DF-RHF iter   8:  -449.68740062989616   -1.46525e-06   1.10013e-06 DIIS
   @DF-RHF iter   9:  -449.68740085177359   -2.21877e-07   2.66117e-07 DIIS
   @DF-RHF iter  10:  -449.68740086286300   -1.10894e-08   1.03928e-07 DIIS
   @DF-RHF iter  11:  -449.68740086452249   -1.65949e-09   4.62651e-08 DIIS
   @DF-RHF iter  12:  -449.68740086482796   -3.05477e-10   1.37535e-08 DIIS
   @DF-RHF iter  13:  -449.68740086485423   -2.62617e-11   5.08227e-09 DIIS
   @DF-RHF iter  14:  -449.68740086485707   -2.84217e-12   2.24311e-09 DIIS
   @DF-RHF iter  15:  -449.68740086485786   -7.95808e-13   7.46528e-10 DIIS
   @DF-RHF iter  16:  -449.68740086485798   -1.13687e-13   3.32377e-10 DIIS
   @DF-RHF iter  17:  -449.68740086485798    0.00000e+00   6.67742e-11 DIIS
  Energy and wave function converged.


  ==> Post-Iterations <==

    Orbital Energies [Eh]
    ---------------------

    Doubly Occupied:

       1A    -15.636100     2A    -15.636100     3A    -15.550253
       4A    -15.550253     5A    -11.299953     6A    -11.299953
       7A    -11.262113     8A    -11.262112     9A    -11.244591
      10A    -11.244591    11A     -1.351882    12A     -1.351882
      13A     -1.168119    14A     -1.168119    15A     -1.011083
      16A     -1.011083    17A     -0.823408    18A     -0.823408
      19A     -0.802711    20A     -0.802711    21A     -0.759673
      22A     -0.759673    23A     -0.609092    24A     -0.609092
      25A     -0.602973    26A     -0.602973    27A     -0.600895
      28A     -0.600895    29A     -0.569914    30A     -0.569914
      31A     -0.434517    32A     -0.434517    33A     -0.399481
      34A     -0.399481    35A     -0.319662    36A     -0.319662

    Virtual:

      37A      0.026260    38A      0.026270    39A      0.042529
      40A      0.042726    41A      0.049663    42A      0.052310
      43A      0.061423    44A      0.064925    45A      0.090026
      46A      0.090028    47A      0.102310    48A      0.102313
      49A      0.121671    50A      0.121837    51A      0.126561
      52A      0.126745    53A      0.133671    54A      0.134802
      55A      0.134917    56A      0.135379    57A      0.142010
      58A      0.142052    59A      0.157364    60A      0.157857
      61A      0.159478    62A      0.159503    63A      0.168757
      64A      0.179130    65A      0.179150    66A      0.179230
      67A      0.188101    68A      0.188126    69A      0.212487
      70A      0.212487    71A      0.221320    72A      0.221323
      73A      0.233291    74A      0.233370    75A      0.242403
      76A      0.242438    77A      0.262357    78A      0.262876
      79A      0.268780    80A      0.268801    81A      0.278873
      82A      0.278887    83A      0.302674    84A      0.302769
      85A      0.315316    86A      0.315347    87A      0.339118
      88A      0.339461    89A      0.362316    90A      0.362800
      91A      0.371621    92A      0.371861    93A      0.380272
      94A      0.381403    95A      0.389292    96A      0.389293
      97A      0.397745    98A      0.398526    99A      0.415985
     100A      0.420816   101A      0.429975   102A      0.430174
     103A      0.453050   104A      0.453082   105A      0.467323
     106A      0.467329   107A      0.482195   108A      0.482227
     109A      0.487371   110A      0.487377   111A      0.489110
     112A      0.489316   113A      0.552667   114A      0.552723
     115A      0.557082   116A      0.557813   117A      0.568908
     118A      0.569818   119A      0.577401   120A      0.577422
     121A      0.595225   122A      0.595257   123A      0.599955
     124A      0.599959   125A      0.617112   126A      0.617117
     127A      0.637572   128A      0.637626   129A      0.653447
     130A      0.653639   131A      0.670270   132A      0.670379
     133A      0.672350   134A      0.672386   135A      0.678881
     136A      0.679477   137A      0.684976   138A      0.684995
     139A      0.715638   140A      0.715776   141A      0.726419
     142A      0.727175   143A      0.742257   144A      0.742277
     145A      0.763690   146A      0.763748   147A      0.768326
     148A      0.768490   149A      0.791725   150A      0.792204
     151A      0.794518   152A      0.794546   153A      0.810700
     154A      0.810793   155A      0.860666   156A      0.862323
     157A      0.872446   158A      0.872465   159A      0.886640
     160A      0.886941   161A      0.890916   162A      0.890937
     163A      0.955351   164A      0.955351   165A      0.977897
     166A      0.977969   167A      0.999288   168A      0.999385
     169A      1.011656   170A      1.011687   171A      1.018424
     172A      1.018427   173A      1.031602   174A      1.031729
     175A      1.078248   176A      1.078420   177A      1.085516
     178A      1.085526   179A      1.127582   180A      1.128507
     181A      1.141293   182A      1.141801   183A      1.150476
     184A      1.150674   185A      1.168188   186A      1.168200
     187A      1.218434   188A      1.218439   189A      1.261737
     190A      1.261778   191A      1.303407   192A      1.303811
     193A      1.385989   194A      1.385990   195A      1.399018
     196A      1.399270   197A      1.451987   198A      1.452297
     199A      1.504192   200A      1.504400   201A      1.519403
     202A      1.519407   203A      1.574944   204A      1.575163
     205A      1.575165   206A      1.575773   207A      1.597396
     208A      1.597401   209A      1.653144   210A      1.653159
     211A      1.672337   212A      1.672837   213A      1.706003
     214A      1.706759   215A      1.725401   216A      1.725422
     217A      1.783675   218A      1.783675   219A      1.800037
     220A      1.800204   221A      1.808103   222A      1.808166
     223A      1.865777   224A      1.866146   225A      1.882321
     226A      1.882557   227A      1.925358   228A      1.925364
     229A      1.965836   230A      1.966139   231A      2.023001
     232A      2.023028   233A      2.026257   234A      2.026643
     235A      2.073921   236A      2.074063   237A      2.107962
     238A      2.108199   239A      2.127725   240A      2.127905
     241A      2.136883   242A      2.137169   243A      2.169679
     244A      2.169712   245A      2.179806   246A      2.179832
     247A      2.268079   248A      2.268080   249A      2.276784
     250A      2.277137   251A      2.301852   252A      2.301911
     253A      2.333040   254A      2.333052   255A      2.418802
     256A      2.418804   257A      2.497874   258A      2.497898
     259A      2.514913   260A      2.515144   261A      2.546286
     262A      2.546297   263A      2.586714   264A      2.586806
     265A      2.634699   266A      2.634873   267A      2.734965
     268A      2.735366   269A      2.748001   270A      2.748002
     271A      2.768103   272A      2.768121   273A      2.795136
     274A      2.795147   275A      2.804293   276A      2.804604
     277A      2.838598   278A      2.838674   279A      2.868169
     280A      2.868182   281A      2.953585   282A      2.953896
     283A      2.981838   284A      2.981838   285A      3.052233
     286A      3.052234   287A      3.070533   288A      3.071392
     289A      3.199837   290A      3.200483   291A      3.209750
     292A      3.209853   293A      3.335771   294A      3.335801
     295A      3.355296   296A      3.355887   297A      3.519444
     298A      3.519668   299A      3.769273   300A      3.769301
     301A      4.109593   302A      4.110595

    Final Occupation by Irrep:
              A
    DOCC [    36 ]

  @DF-RHF Final Energy:  -449.68740086485798

   => Energetics <=

    Nuclear Repulsion Energy =            372.1656339478147402
    One-Electron Energy =               -1345.9203901385230893
    Two-Electron Energy =                 524.0673553258503716
    Total Energy =                       -449.6874008648579775

Computation Completed


Properties will be evaluated at   0.000000,   0.000000,   0.000000 [a0]

Properties computed using the SCF density matrix

  Nuclear Dipole Moment: [e a0]
     X:    61.3772      Y:  -698.2861      Z:  1187.2817

  Electronic Dipole Moment: [e a0]
     X:   -61.3772      Y:   698.2861      Z: -1187.2817

  Dipole Moment: [e a0]
     X:    -0.0000      Y:     0.0000      Z:    -0.0000     Total:     0.0000

  Dipole Moment: [D]
     X:    -0.0000      Y:     0.0000      Z:    -0.0000     Total:     0.0000


*** tstop() called on ds1 at Tue Sep 14 16:30:03 2021
Module time:
	user time   =      23.42 seconds =       0.39 minutes
	system time =       0.56 seconds =       0.01 minutes
	total time  =          5 seconds =       0.08 minutes
Total time:
	user time   =      23.42 seconds =       0.39 minutes
	system time =       0.56 seconds =       0.01 minutes
	total time  =          5 seconds =       0.08 minutes

  //>>>>>>>>>>>>>>>>>>>>>>>>>>>>>>>>>>>//
  //            Monomer A HF           //
  //<<<<<<<<<<<<<<<<<<<<<<<<<<<<<<<<<<<//


*** tstart() called on ds1
*** at Tue Sep 14 16:30:03 2021

   => Loading Basis Set <=

    Name: AUG-CC-PVDZ
    Role: ORBITAL
    Keyword: BASIS
    atoms 1-2, 10-11 entry N          line   218 file /theoryfs2/ds/csargent/miniconda3/envs/cle/share/psi4/basis/aug-cc-pvdz.gbs
    atoms 3-6, 12-15 entry H          line    40 file /theoryfs2/ds/csargent/miniconda3/envs/cle/share/psi4/basis/aug-cc-pvdz.gbs
    atoms 7-9, 16-18 entry C          line   182 file /theoryfs2/ds/csargent/miniconda3/envs/cle/share/psi4/basis/aug-cc-pvdz.gbs


         ---------------------------------------------------------
                                   SCF
               by Justin Turney, Rob Parrish, Andy Simmonett
                          and Daniel G. A. Smith
                              RHF Reference
                        6 Threads,   6675 MiB Core
         ---------------------------------------------------------

  ==> Geometry <==

    Molecular point group: c1
    Full point group: C1

    Geometry (in Bohr), charge = 0, multiplicity = 1:

       Center              X                  Y                   Z               Mass
    ------------   -----------------  -----------------  -----------------  -----------------
         N           -4.293096210000    -3.068374310000     5.305162310000    14.003074004430
         N           -2.158473710000    -2.926272960000     1.720374480000    14.003074004430
         H           -0.025455870000    -6.359035750000     2.220464520000     1.007825032230
         H           -2.685669680000    -6.532602410000     6.614459540000     1.007825032230
         H           -4.743884230000    -0.006090060000     2.756159680000     1.007825032230
         H           -1.410455400000    -2.247231470000     0.000000000000     1.007825032230
         C           -1.437379910000    -5.075048480000     2.940658910000    12.000000000000
         C           -2.769007820000    -5.146099160000     5.135228800000    12.000000000000
         C           -3.859550360000    -1.777281980000     3.210934110000    12.000000000000
      Gh(N)           5.998018470000   -16.328460990000    27.674885760000    14.003074004430
      Gh(N)           3.863395970000   -16.470562350000    31.259673600000    14.003074004430
      Gh(H)           1.730378120000   -13.037799550000    30.759583560000     1.007825032230
      Gh(H)           4.390591930000   -12.864232890000    26.365588540000     1.007825032230
      Gh(H)           6.448806480000   -19.390745240000    30.223888400000     1.007825032230
      Gh(H)           3.115377660000   -17.149603830000    32.980048080000     1.007825032230
      Gh(C)           3.142302170000   -14.321786820000    30.039389160000    12.000000000000
      Gh(C)           4.473930070000   -14.250736140000    27.844819270000    12.000000000000
      Gh(C)           5.564472610000   -17.619553320000    29.769113960000    12.000000000000

  Running in c1 symmetry.

  Rotational constants: A =      0.04433  B =      0.00076  C =      0.00075 [cm^-1]
  Rotational constants: A =   1328.99862  B =     22.79526  C =     22.58174 [MHz]
  Nuclear repulsion =  164.086695994184396

  Charge       = 0
  Multiplicity = 1
  Electrons    = 36
  Nalpha       = 18
  Nbeta        = 18

  ==> Algorithm <==

  SCF Algorithm Type is DF.
  DIIS enabled.
  MOM disabled.
  Fractional occupation disabled.
  Guess Type is SAD.
  Energy threshold   = 1.00e-10
  Density threshold  = 1.00e-10
  Integral threshold = 1.00e-12

  ==> Primary Basis <==

  Basis Set: AUG-CC-PVDZ
    Blend: AUG-CC-PVDZ
    Number of shells: 130
    Number of basis functions: 302
    Number of Cartesian functions: 322
    Spherical Harmonics?: true
    Max angular momentum: 2

   => Loading Basis Set <=

    Name: (AUG-CC-PVDZ AUX)
    Role: JKFIT
    Keyword: DF_BASIS_SCF
    atoms 1-2, 10-11 entry N          line   212 file /theoryfs2/ds/csargent/miniconda3/envs/cle/share/psi4/basis/aug-cc-pvdz-jkfit.gbs
    atoms 3-6, 12-15 entry H          line    70 file /theoryfs2/ds/csargent/miniconda3/envs/cle/share/psi4/basis/aug-cc-pvdz-jkfit.gbs
    atoms 7-9, 16-18 entry C          line   154 file /theoryfs2/ds/csargent/miniconda3/envs/cle/share/psi4/basis/aug-cc-pvdz-jkfit.gbs

  ==> Integral Setup <==

  ==> DiskDFJK: Density-Fitted J/K Matrices <==

    J tasked:                  Yes
    K tasked:                  Yes
    wK tasked:                  No
    OpenMP threads:              6
    Integrals threads:           6
    Memory [MiB]:             5006
    Algorithm:                Core
    Integral Cache:           LOAD
    Schwarz Cutoff:          1E-12
    Fitting Condition:       1E-10

   => Auxiliary Basis Set <=

  Basis Set: (AUG-CC-PVDZ AUX)
    Blend: AUG-CC-PVDZ-JKFIT
    Number of shells: 376
    Number of basis functions: 1116
    Number of Cartesian functions: 1290
    Spherical Harmonics?: true
    Max angular momentum: 3

  Minimum eigenvalue in the overlap matrix is 2.1536287011E-05.
  Reciprocal condition number of the overlap matrix is 1.8141124577E-06.
    Using symmetric orthogonalization.

  ==> Pre-Iterations <==

  SCF Guess: Superposition of Atomic Densities via on-the-fly atomic UHF (no occupation information).

   -------------------------
    Irrep   Nso     Nmo
   -------------------------
     A        302     302
   -------------------------
    Total     302     302
   -------------------------

  ==> Iterations <==

                           Total Energy        Delta E     RMS |[F,P]|

   @DF-RHF iter SAD:  -224.55857169627797   -2.24559e+02   0.00000e+00
   @DF-RHF iter   1:  -224.69806465687458   -1.39493e-01   1.63067e-03 DIIS
   @DF-RHF iter   2:  -224.80532028399264   -1.07256e-01   9.27384e-04 DIIS
   @DF-RHF iter   3:  -224.84168819233884   -3.63679e-02   1.74019e-04 DIIS
   @DF-RHF iter   4:  -224.84337344459809   -1.68525e-03   7.98972e-05 DIIS
   @DF-RHF iter   5:  -224.84367502533141   -3.01581e-04   1.26452e-05 DIIS
   @DF-RHF iter   6:  -224.84369236236711   -1.73370e-05   5.61871e-06 DIIS
   @DF-RHF iter   7:  -224.84369545043722   -3.08807e-06   2.19503e-06 DIIS
   @DF-RHF iter   8:  -224.84369618235564   -7.31918e-07   7.77587e-07 DIIS
   @DF-RHF iter   9:  -224.84369629314941   -1.10794e-07   1.87961e-07 DIIS
   @DF-RHF iter  10:  -224.84369629868519   -5.53578e-09   7.33126e-08 DIIS
   @DF-RHF iter  11:  -224.84369629951144   -8.26248e-10   3.26918e-08 DIIS
   @DF-RHF iter  12:  -224.84369629966378   -1.52340e-10   9.70884e-09 DIIS
   @DF-RHF iter  13:  -224.84369629967679   -1.30171e-11   3.58840e-09 DIIS
   @DF-RHF iter  14:  -224.84369629967915   -2.35900e-12   1.58275e-09 DIIS
   @DF-RHF iter  15:  -224.84369629967927   -1.13687e-13   5.27556e-10 DIIS
   @DF-RHF iter  16:  -224.84369629967861    6.53699e-13   2.34517e-10 DIIS
   @DF-RHF iter  17:  -224.84369629967892   -3.12639e-13   4.71136e-11 DIIS
  Energy and wave function converged.


  ==> Post-Iterations <==

    Orbital Energies [Eh]
    ---------------------

    Doubly Occupied:

       1A    -15.637071     2A    -15.551216     3A    -11.300916
       4A    -11.263160     5A    -11.245653     6A     -1.352867
       7A     -1.169098     8A     -1.012098     9A     -0.824390
      10A     -0.803731    11A     -0.760666    12A     -0.610096
      13A     -0.603958    14A     -0.601922    15A     -0.570942
      16A     -0.435483    17A     -0.400464    18A     -0.320685

    Virtual:

      19A      0.023684    20A      0.025388    21A      0.040989
      22A      0.041661    23A      0.044512    24A      0.050202
      25A      0.061711    26A      0.069034    27A      0.077620
      28A      0.087412    29A      0.089096    30A      0.098589
      31A      0.101397    32A      0.120790    33A      0.125259
      34A      0.125744    35A      0.126267    36A      0.127992
      37A      0.128412    38A      0.133701    39A      0.133889
      40A      0.135075    41A      0.139327    42A      0.140949
      43A      0.156285    44A      0.158097    45A      0.158700
      46A      0.172457    47A      0.178189    48A      0.187222
      49A      0.193701    50A      0.208814    51A      0.210594
      52A      0.211560    53A      0.213586    54A      0.220262
      55A      0.221620    56A      0.223654    57A      0.232356
      58A      0.234221    59A      0.241414    60A      0.261635
      61A      0.267830    62A      0.273241    63A      0.277916
      64A      0.300537    65A      0.301801    66A      0.307557
      67A      0.314449    68A      0.320415    69A      0.338222
      70A      0.361171    71A      0.361544    72A      0.370751
      73A      0.376705    74A      0.379945    75A      0.388292
      76A      0.394539    77A      0.397148    78A      0.417184
      79A      0.428602    80A      0.429180    81A      0.436418
      82A      0.441569    83A      0.450135    84A      0.452059
      85A      0.453231    86A      0.466349    87A      0.469486
      88A      0.481233    89A      0.482177    90A      0.486284
      91A      0.488164    92A      0.518521    93A      0.521763
      94A      0.537115    95A      0.539345    96A      0.544341
      97A      0.551719    98A      0.556361    99A      0.556992
     100A      0.568329   101A      0.576474   102A      0.580570
     103A      0.588707   104A      0.594249   105A      0.598940
     106A      0.607706   107A      0.613077   108A      0.616081
     109A      0.619479   110A      0.636539   111A      0.640978
     112A      0.652523   113A      0.669286   114A      0.671338
     115A      0.678214   116A      0.678800   117A      0.683877
     118A      0.684991   119A      0.712358   120A      0.714706
     121A      0.725800   122A      0.737346   123A      0.741238
     124A      0.757225   125A      0.762701   126A      0.767409
     127A      0.790950   128A      0.793608   129A      0.799379
     130A      0.809752   131A      0.811624   132A      0.813484
     133A      0.824533   134A      0.837835   135A      0.860003
     136A      0.861370   137A      0.871429   138A      0.885789
     139A      0.887704   140A      0.889824   141A      0.910917
     142A      0.920814   143A      0.928067   144A      0.954351
     145A      0.969875   146A      0.976968   147A      0.992962
     148A      0.998363   149A      1.010706   150A      1.016652
     151A      1.017405   152A      1.030681   153A      1.060284
     154A      1.077365   155A      1.079746   156A      1.084553
     157A      1.104842   158A      1.117206   159A      1.127033
     160A      1.133592   161A      1.140520   162A      1.149572
     163A      1.167171   164A      1.172173   165A      1.175180
     166A      1.198680   167A      1.211732   168A      1.217446
     169A      1.260724   170A      1.279149   171A      1.291758
     172A      1.298131   173A      1.302556   174A      1.313701
     175A      1.319255   176A      1.348729   177A      1.385029
     178A      1.385244   179A      1.398159   180A      1.451160
     181A      1.496037   182A      1.503300   183A      1.516964
     184A      1.518410   185A      1.542508   186A      1.574127
     187A      1.574327   188A      1.596381   189A      1.652160
     190A      1.662101   191A      1.671529   192A      1.705320
     193A      1.724478   194A      1.782643   195A      1.799075
     196A      1.807066   197A      1.864966   198A      1.881488
     199A      1.924392   200A      1.965003   201A      2.022007
     202A      2.025440   203A      2.041000   204A      2.072988
     205A      2.102242   206A      2.107065   207A      2.120587
     208A      2.126767   209A      2.132648   210A      2.135978
     211A      2.150759   212A      2.168672   213A      2.178816
     214A      2.186514   215A      2.230989   216A      2.254056
     217A      2.267082   218A      2.275975   219A      2.300925
     220A      2.309987   221A      2.328454   222A      2.332074
     223A      2.378010   224A      2.406793   225A      2.414750
     226A      2.417759   227A      2.457090   228A      2.472095
     229A      2.495249   230A      2.496921   231A      2.514036
     232A      2.527082   233A      2.545345   234A      2.546768
     235A      2.578271   236A      2.585743   237A      2.601227
     238A      2.633773   239A      2.697589   240A      2.734110
     241A      2.747025   242A      2.767093   243A      2.791599
     244A      2.794149   245A      2.803454   246A      2.830382
     247A      2.837650   248A      2.867214   249A      2.897048
     250A      2.934726   251A      2.950808   252A      2.952754
     253A      2.980863   254A      3.044832   255A      3.051201
     256A      3.069931   257A      3.077615   258A      3.133183
     259A      3.160970   260A      3.184352   261A      3.199187
     262A      3.208798   263A      3.214819   264A      3.334817
     265A      3.342252   266A      3.354591   267A      3.356114
     268A      3.364334   269A      3.460015   270A      3.495807
     271A      3.518564   272A      3.570954   273A      3.610295
     274A      3.708601   275A      3.728117   276A      3.768296
     277A      3.779775   278A      3.799537   279A      3.859392
     280A      3.872079   281A      4.005279   282A      4.109068
     283A      4.214139   284A      4.638174   285A      4.640225
     286A      4.697415   287A      4.773167   288A      4.881481
     289A      5.022838   290A      5.256085   291A      5.374626
     292A      5.496257   293A      5.611846   294A      5.717696
     295A      5.885302   296A      6.091077   297A      6.199533
     298A     18.257014   299A     18.591430   300A     19.302060
     301A     25.313299   302A     25.454628

    Final Occupation by Irrep:
              A
    DOCC [    18 ]

  @DF-RHF Final Energy:  -224.84369629967892

   => Energetics <=

    Nuclear Repulsion Energy =            164.0866959941843959
    One-Electron Energy =                -628.9319566759232885
    Two-Electron Energy =                 240.0015643820599394
    Total Energy =                       -224.8436962996789248

Computation Completed


Properties will be evaluated at   0.000000,   0.000000,   0.000000 [a0]

Properties computed using the SCF density matrix

  Nuclear Dipole Moment: [e a0]
     X:  -102.4221      Y:  -129.0981      Z:   128.4908

  Electronic Dipole Moment: [e a0]
     X:   103.2259      Y:   129.2613      Z:  -129.8232

  Dipole Moment: [e a0]
     X:     0.8038      Y:     0.1633      Z:    -1.3324     Total:     1.5646

  Dipole Moment: [D]
     X:     2.0431      Y:     0.4150      Z:    -3.3867     Total:     3.9769


*** tstop() called on ds1 at Tue Sep 14 16:30:07 2021
Module time:
	user time   =      17.02 seconds =       0.28 minutes
	system time =       0.64 seconds =       0.01 minutes
	total time  =          4 seconds =       0.07 minutes
Total time:
	user time   =      40.63 seconds =       0.68 minutes
	system time =       1.21 seconds =       0.02 minutes
	total time  =          9 seconds =       0.15 minutes

  //>>>>>>>>>>>>>>>>>>>>>>>>>>>>>>>>>>>//
  //            Monomer B HF           //
  //<<<<<<<<<<<<<<<<<<<<<<<<<<<<<<<<<<<//


*** tstart() called on ds1
*** at Tue Sep 14 16:30:07 2021

   => Loading Basis Set <=

    Name: AUG-CC-PVDZ
    Role: ORBITAL
    Keyword: BASIS
    atoms 1-2, 10-11 entry N          line   218 file /theoryfs2/ds/csargent/miniconda3/envs/cle/share/psi4/basis/aug-cc-pvdz.gbs
    atoms 3-6, 12-15 entry H          line    40 file /theoryfs2/ds/csargent/miniconda3/envs/cle/share/psi4/basis/aug-cc-pvdz.gbs
    atoms 7-9, 16-18 entry C          line   182 file /theoryfs2/ds/csargent/miniconda3/envs/cle/share/psi4/basis/aug-cc-pvdz.gbs


         ---------------------------------------------------------
                                   SCF
               by Justin Turney, Rob Parrish, Andy Simmonett
                          and Daniel G. A. Smith
                              RHF Reference
                        6 Threads,   6675 MiB Core
         ---------------------------------------------------------

  ==> Geometry <==

    Molecular point group: c1
    Full point group: C1

    Geometry (in Bohr), charge = 0, multiplicity = 1:

       Center              X                  Y                   Z               Mass
    ------------   -----------------  -----------------  -----------------  -----------------
      Gh(N)          -4.293096210000    -3.068374310000     5.305162310000    14.003074004430
      Gh(N)          -2.158473710000    -2.926272960000     1.720374480000    14.003074004430
      Gh(H)          -0.025455870000    -6.359035750000     2.220464520000     1.007825032230
      Gh(H)          -2.685669680000    -6.532602410000     6.614459540000     1.007825032230
      Gh(H)          -4.743884230000    -0.006090060000     2.756159680000     1.007825032230
      Gh(H)          -1.410455400000    -2.247231470000     0.000000000000     1.007825032230
      Gh(C)          -1.437379910000    -5.075048480000     2.940658910000    12.000000000000
      Gh(C)          -2.769007820000    -5.146099160000     5.135228800000    12.000000000000
      Gh(C)          -3.859550360000    -1.777281980000     3.210934110000    12.000000000000
         N            5.998018470000   -16.328460990000    27.674885760000    14.003074004430
         N            3.863395970000   -16.470562350000    31.259673600000    14.003074004430
         H            1.730378120000   -13.037799550000    30.759583560000     1.007825032230
         H            4.390591930000   -12.864232890000    26.365588540000     1.007825032230
         H            6.448806480000   -19.390745240000    30.223888400000     1.007825032230
         H            3.115377660000   -17.149603830000    32.980048080000     1.007825032230
         C            3.142302170000   -14.321786820000    30.039389160000    12.000000000000
         C            4.473930070000   -14.250736140000    27.844819270000    12.000000000000
         C            5.564472610000   -17.619553320000    29.769113960000    12.000000000000

  Running in c1 symmetry.

  Rotational constants: A =      0.04433  B =      0.00076  C =      0.00075 [cm^-1]
  Rotational constants: A =   1328.99862  B =     22.79526  C =     22.58174 [MHz]
  Nuclear repulsion =  164.086695872565855

  Charge       = 0
  Multiplicity = 1
  Electrons    = 36
  Nalpha       = 18
  Nbeta        = 18

  ==> Algorithm <==

  SCF Algorithm Type is DF.
  DIIS enabled.
  MOM disabled.
  Fractional occupation disabled.
  Guess Type is SAD.
  Energy threshold   = 1.00e-10
  Density threshold  = 1.00e-10
  Integral threshold = 1.00e-12

  ==> Primary Basis <==

  Basis Set: AUG-CC-PVDZ
    Blend: AUG-CC-PVDZ
    Number of shells: 130
    Number of basis functions: 302
    Number of Cartesian functions: 322
    Spherical Harmonics?: true
    Max angular momentum: 2

   => Loading Basis Set <=

    Name: (AUG-CC-PVDZ AUX)
    Role: JKFIT
    Keyword: DF_BASIS_SCF
    atoms 1-2, 10-11 entry N          line   212 file /theoryfs2/ds/csargent/miniconda3/envs/cle/share/psi4/basis/aug-cc-pvdz-jkfit.gbs
    atoms 3-6, 12-15 entry H          line    70 file /theoryfs2/ds/csargent/miniconda3/envs/cle/share/psi4/basis/aug-cc-pvdz-jkfit.gbs
    atoms 7-9, 16-18 entry C          line   154 file /theoryfs2/ds/csargent/miniconda3/envs/cle/share/psi4/basis/aug-cc-pvdz-jkfit.gbs

  ==> Integral Setup <==

  ==> DiskDFJK: Density-Fitted J/K Matrices <==

    J tasked:                  Yes
    K tasked:                  Yes
    wK tasked:                  No
    OpenMP threads:              6
    Integrals threads:           6
    Memory [MiB]:             5006
    Algorithm:                Core
    Integral Cache:           LOAD
    Schwarz Cutoff:          1E-12
    Fitting Condition:       1E-10

   => Auxiliary Basis Set <=

  Basis Set: (AUG-CC-PVDZ AUX)
    Blend: AUG-CC-PVDZ-JKFIT
    Number of shells: 376
    Number of basis functions: 1116
    Number of Cartesian functions: 1290
    Spherical Harmonics?: true
    Max angular momentum: 3

  Minimum eigenvalue in the overlap matrix is 2.1536287011E-05.
  Reciprocal condition number of the overlap matrix is 1.8141124577E-06.
    Using symmetric orthogonalization.

  ==> Pre-Iterations <==

  SCF Guess: Superposition of Atomic Densities via on-the-fly atomic UHF (no occupation information).

   -------------------------
    Irrep   Nso     Nmo
   -------------------------
     A        302     302
   -------------------------
    Total     302     302
   -------------------------

  ==> Iterations <==

                           Total Energy        Delta E     RMS |[F,P]|

   @DF-RHF iter SAD:  -224.55857168693822   -2.24559e+02   0.00000e+00
   @DF-RHF iter   1:  -224.69806465885665   -1.39493e-01   1.63067e-03 DIIS
   @DF-RHF iter   2:  -224.80532028568015   -1.07256e-01   9.27384e-04 DIIS
   @DF-RHF iter   3:  -224.84168819385829   -3.63679e-02   1.74019e-04 DIIS
   @DF-RHF iter   4:  -224.84337344612973   -1.68525e-03   7.98972e-05 DIIS
   @DF-RHF iter   5:  -224.84367502686791   -3.01581e-04   1.26452e-05 DIIS
   @DF-RHF iter   6:  -224.84369236390336   -1.73370e-05   5.61871e-06 DIIS
   @DF-RHF iter   7:  -224.84369545197325   -3.08807e-06   2.19503e-06 DIIS
   @DF-RHF iter   8:  -224.84369618389150   -7.31918e-07   7.77587e-07 DIIS
   @DF-RHF iter   9:  -224.84369629468586   -1.10794e-07   1.87961e-07 DIIS
   @DF-RHF iter  10:  -224.84369630022101   -5.53516e-09   7.33126e-08 DIIS
   @DF-RHF iter  11:  -224.84369630104737   -8.26361e-10   3.26918e-08 DIIS
   @DF-RHF iter  12:  -224.84369630119988   -1.52511e-10   9.70884e-09 DIIS
   @DF-RHF iter  13:  -224.84369630121313   -1.32445e-11   3.58840e-09 DIIS
   @DF-RHF iter  14:  -224.84369630121461   -1.47793e-12   1.58275e-09 DIIS
   @DF-RHF iter  15:  -224.84369630121483   -2.27374e-13   5.27556e-10 DIIS
   @DF-RHF iter  16:  -224.84369630121486   -2.84217e-14   2.34517e-10 DIIS
   @DF-RHF iter  17:  -224.84369630121498   -1.13687e-13   4.71141e-11 DIIS
  Energy and wave function converged.


  ==> Post-Iterations <==

    Orbital Energies [Eh]
    ---------------------

    Doubly Occupied:

       1A    -15.637071     2A    -15.551216     3A    -11.300916
       4A    -11.263160     5A    -11.245653     6A     -1.352867
       7A     -1.169098     8A     -1.012098     9A     -0.824390
      10A     -0.803731    11A     -0.760666    12A     -0.610096
      13A     -0.603958    14A     -0.601922    15A     -0.570942
      16A     -0.435483    17A     -0.400464    18A     -0.320685

    Virtual:

      19A      0.023684    20A      0.025388    21A      0.040989
      22A      0.041661    23A      0.044512    24A      0.050202
      25A      0.061711    26A      0.069034    27A      0.077620
      28A      0.087412    29A      0.089096    30A      0.098589
      31A      0.101397    32A      0.120790    33A      0.125259
      34A      0.125744    35A      0.126267    36A      0.127992
      37A      0.128412    38A      0.133701    39A      0.133889
      40A      0.135075    41A      0.139327    42A      0.140949
      43A      0.156285    44A      0.158097    45A      0.158700
      46A      0.172457    47A      0.178189    48A      0.187222
      49A      0.193701    50A      0.208814    51A      0.210594
      52A      0.211560    53A      0.213586    54A      0.220262
      55A      0.221620    56A      0.223654    57A      0.232356
      58A      0.234221    59A      0.241414    60A      0.261635
      61A      0.267830    62A      0.273241    63A      0.277916
      64A      0.300537    65A      0.301801    66A      0.307557
      67A      0.314449    68A      0.320415    69A      0.338222
      70A      0.361171    71A      0.361544    72A      0.370751
      73A      0.376705    74A      0.379945    75A      0.388292
      76A      0.394539    77A      0.397148    78A      0.417184
      79A      0.428602    80A      0.429180    81A      0.436418
      82A      0.441569    83A      0.450135    84A      0.452059
      85A      0.453231    86A      0.466349    87A      0.469486
      88A      0.481233    89A      0.482177    90A      0.486284
      91A      0.488164    92A      0.518521    93A      0.521763
      94A      0.537115    95A      0.539345    96A      0.544341
      97A      0.551719    98A      0.556361    99A      0.556992
     100A      0.568329   101A      0.576474   102A      0.580570
     103A      0.588707   104A      0.594249   105A      0.598940
     106A      0.607706   107A      0.613077   108A      0.616081
     109A      0.619479   110A      0.636539   111A      0.640978
     112A      0.652523   113A      0.669286   114A      0.671338
     115A      0.678214   116A      0.678800   117A      0.683877
     118A      0.684991   119A      0.712358   120A      0.714706
     121A      0.725800   122A      0.737346   123A      0.741238
     124A      0.757225   125A      0.762701   126A      0.767409
     127A      0.790950   128A      0.793608   129A      0.799379
     130A      0.809752   131A      0.811624   132A      0.813484
     133A      0.824533   134A      0.837835   135A      0.860003
     136A      0.861370   137A      0.871429   138A      0.885789
     139A      0.887704   140A      0.889824   141A      0.910917
     142A      0.920814   143A      0.928067   144A      0.954351
     145A      0.969875   146A      0.976968   147A      0.992962
     148A      0.998363   149A      1.010706   150A      1.016652
     151A      1.017405   152A      1.030681   153A      1.060284
     154A      1.077365   155A      1.079746   156A      1.084553
     157A      1.104842   158A      1.117206   159A      1.127033
     160A      1.133592   161A      1.140520   162A      1.149572
     163A      1.167171   164A      1.172173   165A      1.175180
     166A      1.198680   167A      1.211732   168A      1.217446
     169A      1.260724   170A      1.279149   171A      1.291758
     172A      1.298131   173A      1.302556   174A      1.313701
     175A      1.319255   176A      1.348729   177A      1.385029
     178A      1.385244   179A      1.398159   180A      1.451160
     181A      1.496037   182A      1.503300   183A      1.516964
     184A      1.518410   185A      1.542508   186A      1.574127
     187A      1.574327   188A      1.596381   189A      1.652160
     190A      1.662101   191A      1.671529   192A      1.705320
     193A      1.724478   194A      1.782643   195A      1.799075
     196A      1.807066   197A      1.864966   198A      1.881488
     199A      1.924392   200A      1.965003   201A      2.022007
     202A      2.025440   203A      2.041000   204A      2.072988
     205A      2.102242   206A      2.107065   207A      2.120587
     208A      2.126767   209A      2.132648   210A      2.135978
     211A      2.150759   212A      2.168672   213A      2.178816
     214A      2.186514   215A      2.230989   216A      2.254056
     217A      2.267082   218A      2.275975   219A      2.300925
     220A      2.309987   221A      2.328454   222A      2.332074
     223A      2.378010   224A      2.406793   225A      2.414750
     226A      2.417759   227A      2.457090   228A      2.472095
     229A      2.495249   230A      2.496921   231A      2.514036
     232A      2.527082   233A      2.545345   234A      2.546768
     235A      2.578271   236A      2.585743   237A      2.601227
     238A      2.633773   239A      2.697589   240A      2.734110
     241A      2.747025   242A      2.767093   243A      2.791599
     244A      2.794149   245A      2.803454   246A      2.830382
     247A      2.837650   248A      2.867214   249A      2.897048
     250A      2.934726   251A      2.950808   252A      2.952754
     253A      2.980863   254A      3.044832   255A      3.051201
     256A      3.069931   257A      3.077615   258A      3.133183
     259A      3.160970   260A      3.184352   261A      3.199187
     262A      3.208798   263A      3.214819   264A      3.334817
     265A      3.342252   266A      3.354591   267A      3.356114
     268A      3.364334   269A      3.460015   270A      3.495807
     271A      3.518564   272A      3.570954   273A      3.610295
     274A      3.708601   275A      3.728117   276A      3.768296
     277A      3.779775   278A      3.799537   279A      3.859392
     280A      3.872079   281A      4.005279   282A      4.109068
     283A      4.214139   284A      4.638174   285A      4.640225
     286A      4.697415   287A      4.773167   288A      4.881481
     289A      5.022838   290A      5.256085   291A      5.374626
     292A      5.496257   293A      5.611846   294A      5.717696
     295A      5.885302   296A      6.091077   297A      6.199533
     298A     18.257014   299A     18.591430   300A     19.302060
     301A     25.313299   302A     25.454628

    Final Occupation by Irrep:
              A
    DOCC [    18 ]

  @DF-RHF Final Energy:  -224.84369630121498

   => Energetics <=

    Nuclear Repulsion Energy =            164.0866958725658549
    One-Electron Energy =                -628.9319564362940582
    Two-Electron Energy =                 240.0015642625131989
    Total Energy =                       -224.8436963012149761

Computation Completed


Properties will be evaluated at   0.000000,   0.000000,   0.000000 [a0]

Properties computed using the SCF density matrix

  Nuclear Dipole Moment: [e a0]
     X:   163.7993      Y:  -569.1880      Z:  1058.7910

  Electronic Dipole Moment: [e a0]
     X:  -164.6031      Y:   569.0247      Z: -1057.4585

  Dipole Moment: [e a0]
     X:    -0.8038      Y:    -0.1633      Z:     1.3324     Total:     1.5646

  Dipole Moment: [D]
     X:    -2.0431      Y:    -0.4150      Z:     3.3867     Total:     3.9769


*** tstop() called on ds1 at Tue Sep 14 16:30:10 2021
Module time:
	user time   =      16.88 seconds =       0.28 minutes
	system time =       0.39 seconds =       0.01 minutes
	total time  =          3 seconds =       0.05 minutes
Total time:
	user time   =      57.67 seconds =       0.96 minutes
	system time =       1.61 seconds =       0.03 minutes
	total time  =         12 seconds =       0.20 minutes
  Constructing Basis Sets for SAPT...

   => Loading Basis Set <=

    Name: (AUG-CC-PVDZ AUX)
    Role: RIFIT
    Keyword: DF_BASIS_SAPT
    atoms 1-2, 10-11 entry N          line   158 file /theoryfs2/ds/csargent/miniconda3/envs/cle/share/psi4/basis/aug-cc-pvdz-ri.gbs
    atoms 3-6, 12-15 entry H          line    30 file /theoryfs2/ds/csargent/miniconda3/envs/cle/share/psi4/basis/aug-cc-pvdz-ri.gbs
    atoms 7-9, 16-18 entry C          line   112 file /theoryfs2/ds/csargent/miniconda3/envs/cle/share/psi4/basis/aug-cc-pvdz-ri.gbs


  //>>>>>>>>>>>>>>>>>>>>>>>>>>>>>>>>>>>//
  //               SAPT0               //
  //<<<<<<<<<<<<<<<<<<<<<<<<<<<<<<<<<<<//


*** tstart() called on ds1
*** at Tue Sep 14 16:30:11 2021

        SAPT0
    Ed Hohenstein
     6 June 2009

      Orbital Information
  --------------------------
    NSO        =       302
    NMO        =       302
    NRI        =       904
    NOCC A     =        18
    NOCC B     =        18
    FOCC A     =         5
    FOCC B     =         5
    NVIR A     =       284
    NVIR B     =       284

    Elst10,r            =    -0.000007980778 [Eh]
    Exch10              =     0.000000000050 [Eh]
    Exch10 (S^2)        =     0.000000000050 [Eh]

    Iter     Energy [mEh]          dE [mEh]         Residual      Time [s]
       1      -0.00014565       0.000145646       0.110086298             0
       2      -0.00014043      -0.000005217       0.031925358             0
       3      -0.00015527       0.000014838       0.009011428             0
       4      -0.00015618       0.000000912       0.003063408             0
       5      -0.00015586      -0.000000320       0.001829093             0
       6      -0.00015571      -0.000000149       0.000649507             0
       7      -0.00015576       0.000000047       0.000197368             0
       8      -0.00015577       0.000000016       0.000058169             1
       9      -0.00015577      -0.000000003       0.000021708             1
      10      -0.00015577      -0.000000002       0.000006128             1
      11      -0.00015577       0.000000001       0.000002063             1
      12      -0.00015577      -0.000000000       0.000000791             1

    CHF Iterations converged


    Iter     Energy [mEh]          dE [mEh]         Residual      Time [s]
       1      -0.00014565       0.000145646       0.110086297             0
       2      -0.00014043      -0.000005217       0.031925358             0
       3      -0.00015527       0.000014838       0.009011428             0
       4      -0.00015618       0.000000912       0.003063408             1
       5      -0.00015586      -0.000000320       0.001829093             1
       6      -0.00015571      -0.000000149       0.000649507             1
       7      -0.00015576       0.000000047       0.000197368             1
       8      -0.00015577       0.000000016       0.000058169             1
       9      -0.00015577      -0.000000003       0.000021708             1
      10      -0.00015577      -0.000000002       0.000006128             1
      11      -0.00015577       0.000000001       0.000002063             1
      12      -0.00015577      -0.000000000       0.000000791             2

    CHF Iterations converged

    Ind20,r (A<-B)      =    -0.000000155768 [Eh]
    Ind20,r (B<-A)      =    -0.000000155768 [Eh]
    Ind20,r             =    -0.000000311535 [Eh]
    Exch-Ind20,r (A<-B) =     0.000000000038 [Eh]
    Exch-Ind20,r (B<-A) =     0.000000000038 [Eh]
    Exch-Ind20,r        =     0.000000000075 [Eh]
    Disp20              =    -0.000002295301 [Eh]
    Disp20 (SS)         =    -0.000001147651 [Eh]
    Disp20 (OS)         =    -0.000001147651 [Eh]
    Exch-Disp20         =     0.000000000003 [Eh]
    Exch-Disp20 (SS)    =     0.000000000002 [Eh]
    Exch-Disp20 (OS)    =     0.000000000001 [Eh]

    SAPT Results
  --------------------------------------------------------------------------------------------------------
    Electrostatics                 -0.00798078 [mEh]      -0.00500801 [kcal/mol]      -0.02095353 [kJ/mol]
      Elst10,r                     -0.00798078 [mEh]      -0.00500801 [kcal/mol]      -0.02095353 [kJ/mol]

    Exchange                        0.00000005 [mEh]       0.00000003 [kcal/mol]       0.00000013 [kJ/mol]
      Exch10                        0.00000005 [mEh]       0.00000003 [kcal/mol]       0.00000013 [kJ/mol]
      Exch10(S^2)                   0.00000005 [mEh]       0.00000003 [kcal/mol]       0.00000013 [kJ/mol]

    Induction                      -0.00028324 [mEh]      -0.00017773 [kcal/mol]      -0.00074363 [kJ/mol]
      Ind20,r                      -0.00031154 [mEh]      -0.00019549 [kcal/mol]      -0.00081794 [kJ/mol]
      Exch-Ind20,r                  0.00000008 [mEh]       0.00000005 [kcal/mol]       0.00000020 [kJ/mol]
      delta HF,r (2)                0.00002822 [mEh]       0.00001771 [kcal/mol]       0.00007410 [kJ/mol]

    Dispersion                     -0.00229530 [mEh]      -0.00144032 [kcal/mol]      -0.00602630 [kJ/mol]
      Disp20                       -0.00229530 [mEh]      -0.00144032 [kcal/mol]      -0.00602631 [kJ/mol]
      Exch-Disp20                   0.00000000 [mEh]       0.00000000 [kcal/mol]       0.00000001 [kJ/mol]
      Disp20 (SS)                  -0.00114765 [mEh]      -0.00072016 [kcal/mol]      -0.00301316 [kJ/mol]
      Disp20 (OS)                  -0.00114765 [mEh]      -0.00072016 [kcal/mol]      -0.00301316 [kJ/mol]
      Exch-Disp20 (SS)              0.00000000 [mEh]       0.00000000 [kcal/mol]       0.00000001 [kJ/mol]
      Exch-Disp20 (OS)              0.00000000 [mEh]       0.00000000 [kcal/mol]       0.00000000 [kJ/mol]

  Total HF                         -0.00826396 [mEh]      -0.00518572 [kcal/mol]      -0.02169703 [kJ/mol]
  Total SAPT0                      -0.01055926 [mEh]      -0.00662604 [kcal/mol]      -0.02772334 [kJ/mol]

  Special recipe for scaled SAPT0 (see Manual):
    Electrostatics sSAPT0          -0.00798078 [mEh]      -0.00500801 [kcal/mol]      -0.02095353 [kJ/mol]
    Exchange sSAPT0                 0.00000005 [mEh]       0.00000003 [kcal/mol]       0.00000013 [kJ/mol]
    Induction sSAPT0               -0.00028324 [mEh]      -0.00017773 [kcal/mol]      -0.00074363 [kJ/mol]
    Dispersion sSAPT0              -0.00229530 [mEh]      -0.00144032 [kcal/mol]      -0.00602630 [kJ/mol]
  Total sSAPT0                     -0.01055926 [mEh]      -0.00662604 [kcal/mol]      -0.02772334 [kJ/mol]
  --------------------------------------------------------------------------------------------------------

*** tstop() called on ds1 at Tue Sep 14 16:30:20 2021
Module time:
	user time   =      45.85 seconds =       0.76 minutes
	system time =       3.96 seconds =       0.07 minutes
	total time  =          9 seconds =       0.15 minutes
Total time:
	user time   =     104.11 seconds =       1.74 minutes
	system time =       5.58 seconds =       0.09 minutes
	total time  =         22 seconds =       0.37 minutes


Warning! sapt0 does not have an associated derived wavefunction.The returned wavefunction is the dimer SCF wavefunction.


    Psi4 stopped on: Tuesday, 14 September 2021 04:30PM
    Psi4 wall time for execution: 0:00:22.13

*** Psi4 exiting successfully. Buy a developer a beer!
