
    -----------------------------------------------------------------------
          Psi4: An Open-Source Ab Initio Electronic Structure Package
                               Psi4 1.4rc3

                         Git: Rev {HEAD} 080dba6


    D. G. A. Smith, L. A. Burns, A. C. Simmonett, R. M. Parrish,
    M. C. Schieber, R. Galvelis, P. Kraus, H. Kruse, R. Di Remigio,
    A. Alenaizan, A. M. James, S. Lehtola, J. P. Misiewicz, M. Scheurer,
    R. A. Shaw, J. B. Schriber, Y. Xie, Z. L. Glick, D. A. Sirianni,
    J. S. O'Brien, J. M. Waldrop, A. Kumar, E. G. Hohenstein,
    B. P. Pritchard, B. R. Brooks, H. F. Schaefer III, A. Yu. Sokolov,
    K. Patkowski, A. E. DePrince III, U. Bozkaya, R. A. King,
    F. A. Evangelista, J. M. Turney, T. D. Crawford, C. D. Sherrill,
    J. Chem. Phys. 152(18) 184108 (2020). https://doi.org/10.1063/5.0006002

                            Additional Code Authors
    E. T. Seidl, C. L. Janssen, E. F. Valeev, M. L. Leininger,
    J. F. Gonthier, R. M. Richard, H. R. McAlexander, M. Saitow, X. Wang,
    P. Verma, and M. H. Lechner

             Previous Authors, Complete List of Code Contributors,
                       and Citations for Specific Modules
    https://github.com/psi4/psi4/blob/master/codemeta.json
    https://github.com/psi4/psi4/graphs/contributors
    http://psicode.org/psi4manual/master/introduction.html#citing-psifour

    -----------------------------------------------------------------------


    Psi4 started on: Tuesday, 14 September 2021 05:38PM

    Process ID: 3645
    Host:       ds1
    PSIDATADIR: /theoryfs2/ds/csargent/miniconda3/envs/cle/share/psi4
    Memory:     500.0 MiB
    Threads:    6

  ==> Input File <==

--------------------------------------------------------------------------
# PSI4 file produced by CrystaLattE

# Generated from:               imidazole.xyz
# Psithon input for N-mer:      2mer-0+502
# Number of atoms per monomer:  [9, 9]
# Number of replicas:           1
# COM priority:                 1.822416941275e-05
# Minimum COM separations:      20.109
# Separation priority:          2.621450630393e-05
# Minimum monomer separations:  17.814
# Cutoff priority:              7.787335949598e-07
# Nuclear repulsion energy:     362.24442103456215

memory 7 GB

molecule Dimer_0_502 {
  N           -4.29309621      -3.06837431       5.30516231
  N           -2.15847371      -2.92627296       1.72037448
  H           -0.02545587      -6.35903575       2.22046452
  H           -2.68566968      -6.53260241       6.61445954
  H           -4.74388423      -0.00609006       2.75615968
  H           -1.41045540      -2.24723147       0.00000000
  C           -1.43737991      -5.07504848       2.94065891
  C           -2.76900782      -5.14609916       5.13522880
  C           -3.85955036      -1.77728198       3.21093411
--
  N          -22.65854439      14.12182991      27.67488576
  N          -24.79316689      13.97972855      31.25967360
  H          -26.92618474      17.41249134      30.75958356
  H          -24.26597092      17.58605800      26.36558854
  H          -22.20775638      11.05954565      30.22388840
  H          -25.54118520      13.30068706      32.98004808
  C          -25.51426069      16.12850408      30.03938916
  C          -24.18263278      16.19955476      27.84481927
  C          -23.09209025      12.83073757      29.76911396
units = au
no_com
no_reorient
}

set {
  e_convergence 10
  d_convergence 10
  scf_type df
  mp2_type df
  cc_type df
  freeze_core true
}

energy('sapt0/aug-cc-pvdz')

--------------------------------------------------------------------------

  Memory set to   6.519 GiB by Python driver.

Scratch directory: /scratch/csargent/psi4.31446.79897/

Scratch directory: /scratch/csargent/psi4.31446.79897/

  //>>>>>>>>>>>>>>>>>>>>>>>>>>>>>>>>>>>//
  //              Dimer HF             //
  //<<<<<<<<<<<<<<<<<<<<<<<<<<<<<<<<<<<//


*** tstart() called on ds1
*** at Tue Sep 14 17:38:25 2021

   => Loading Basis Set <=

    Name: AUG-CC-PVDZ
    Role: ORBITAL
    Keyword: BASIS
    atoms 1-2, 10-11 entry N          line   218 file /theoryfs2/ds/csargent/miniconda3/envs/cle/share/psi4/basis/aug-cc-pvdz.gbs
    atoms 3-6, 12-15 entry H          line    40 file /theoryfs2/ds/csargent/miniconda3/envs/cle/share/psi4/basis/aug-cc-pvdz.gbs
    atoms 7-9, 16-18 entry C          line   182 file /theoryfs2/ds/csargent/miniconda3/envs/cle/share/psi4/basis/aug-cc-pvdz.gbs


         ---------------------------------------------------------
                                   SCF
               by Justin Turney, Rob Parrish, Andy Simmonett
                          and Daniel G. A. Smith
                              RHF Reference
                        6 Threads,   6675 MiB Core
         ---------------------------------------------------------

  ==> Geometry <==

    Molecular point group: c1
    Full point group: C1

    Geometry (in Bohr), charge = 0, multiplicity = 1:

       Center              X                  Y                   Z               Mass
    ------------   -----------------  -----------------  -----------------  -----------------
         N           -4.293096210000    -3.068374310000     5.305162310000    14.003074004430
         N           -2.158473710000    -2.926272960000     1.720374480000    14.003074004430
         H           -0.025455870000    -6.359035750000     2.220464520000     1.007825032230
         H           -2.685669680000    -6.532602410000     6.614459540000     1.007825032230
         H           -4.743884230000    -0.006090060000     2.756159680000     1.007825032230
         H           -1.410455400000    -2.247231470000     0.000000000000     1.007825032230
         C           -1.437379910000    -5.075048480000     2.940658910000    12.000000000000
         C           -2.769007820000    -5.146099160000     5.135228800000    12.000000000000
         C           -3.859550360000    -1.777281980000     3.210934110000    12.000000000000
         N          -22.658544390000    14.121829910000    27.674885760000    14.003074004430
         N          -24.793166890000    13.979728550000    31.259673600000    14.003074004430
         H          -26.926184740000    17.412491340000    30.759583560000     1.007825032230
         H          -24.265970920000    17.586058000000    26.365588540000     1.007825032230
         H          -22.207756380000    11.059545650000    30.223888400000     1.007825032230
         H          -25.541185200000    13.300687060000    32.980048080000     1.007825032230
         C          -25.514260690000    16.128504080000    30.039389160000    12.000000000000
         C          -24.182632780000    16.199554760000    27.844819270000    12.000000000000
         C          -23.092090250000    12.830737570000    29.769113960000    12.000000000000

  Running in c1 symmetry.

  Rotational constants: A =      0.02923  B =      0.00053  C =      0.00052 [cm^-1]
  Rotational constants: A =    876.38711  B =     15.86488  C =     15.60427 [MHz]
  Nuclear repulsion =  362.244420969027999

  Charge       = 0
  Multiplicity = 1
  Electrons    = 72
  Nalpha       = 36
  Nbeta        = 36

  ==> Algorithm <==

  SCF Algorithm Type is DF.
  DIIS enabled.
  MOM disabled.
  Fractional occupation disabled.
  Guess Type is SAD.
  Energy threshold   = 1.00e-10
  Density threshold  = 1.00e-10
  Integral threshold = 1.00e-12

  ==> Primary Basis <==

  Basis Set: AUG-CC-PVDZ
    Blend: AUG-CC-PVDZ
    Number of shells: 130
    Number of basis functions: 302
    Number of Cartesian functions: 322
    Spherical Harmonics?: true
    Max angular momentum: 2

   => Loading Basis Set <=

    Name: (AUG-CC-PVDZ AUX)
    Role: JKFIT
    Keyword: DF_BASIS_SCF
    atoms 1-2, 10-11 entry N          line   212 file /theoryfs2/ds/csargent/miniconda3/envs/cle/share/psi4/basis/aug-cc-pvdz-jkfit.gbs
    atoms 3-6, 12-15 entry H          line    70 file /theoryfs2/ds/csargent/miniconda3/envs/cle/share/psi4/basis/aug-cc-pvdz-jkfit.gbs
    atoms 7-9, 16-18 entry C          line   154 file /theoryfs2/ds/csargent/miniconda3/envs/cle/share/psi4/basis/aug-cc-pvdz-jkfit.gbs

  ==> Integral Setup <==

  ==> DiskDFJK: Density-Fitted J/K Matrices <==

    J tasked:                  Yes
    K tasked:                  Yes
    wK tasked:                  No
    OpenMP threads:              6
    Integrals threads:           6
    Memory [MiB]:             5006
    Algorithm:                Core
    Integral Cache:           SAVE
    Schwarz Cutoff:          1E-12
    Fitting Condition:       1E-10

   => Auxiliary Basis Set <=

  Basis Set: (AUG-CC-PVDZ AUX)
    Blend: AUG-CC-PVDZ-JKFIT
    Number of shells: 376
    Number of basis functions: 1116
    Number of Cartesian functions: 1290
    Spherical Harmonics?: true
    Max angular momentum: 3

  Minimum eigenvalue in the overlap matrix is 2.1837060961E-05.
  Reciprocal condition number of the overlap matrix is 1.8394512419E-06.
    Using symmetric orthogonalization.

  ==> Pre-Iterations <==

  SCF Guess: Superposition of Atomic Densities via on-the-fly atomic UHF (no occupation information).

   -------------------------
    Irrep   Nso     Nmo
   -------------------------
     A        302     302
   -------------------------
    Total     302     302
   -------------------------

  ==> Iterations <==

                           Total Energy        Delta E     RMS |[F,P]|

   @DF-RHF iter SAD:  -449.11714337579150   -4.49117e+02   0.00000e+00
   @DF-RHF iter   1:  -449.39601132340874   -2.78868e-01   2.30634e-03 DIIS
   @DF-RHF iter   2:  -449.61054428871864   -2.14533e-01   1.31183e-03 DIIS
   @DF-RHF iter   3:  -449.68331951060509   -7.27752e-02   2.46244e-04 DIIS
   @DF-RHF iter   4:  -449.68669236887041   -3.37286e-03   1.13090e-04 DIIS
   @DF-RHF iter   5:  -449.68729661973140   -6.04251e-04   1.78885e-05 DIIS
   @DF-RHF iter   6:  -449.68733132170343   -3.47020e-05   7.94865e-06 DIIS
   @DF-RHF iter   7:  -449.68733750142928   -6.17973e-06   3.10458e-06 DIIS
   @DF-RHF iter   8:  -449.68733896465983   -1.46323e-06   1.09953e-06 DIIS
   @DF-RHF iter   9:  -449.68733918610224   -2.21442e-07   2.65734e-07 DIIS
   @DF-RHF iter  10:  -449.68733919716709   -1.10649e-08   1.03606e-07 DIIS
   @DF-RHF iter  11:  -449.68733919881799   -1.65090e-09   4.62080e-08 DIIS
   @DF-RHF iter  12:  -449.68733919912086   -3.02862e-10   1.37204e-08 DIIS
   @DF-RHF iter  13:  -449.68733919914797   -2.71143e-11   5.07340e-09 DIIS
   @DF-RHF iter  14:  -449.68733919915024   -2.27374e-12   2.23535e-09 DIIS
   @DF-RHF iter  15:  -449.68733919915184   -1.59162e-12   7.46063e-10 DIIS
   @DF-RHF iter  16:  -449.68733919915144    3.97904e-13   3.31705e-10 DIIS
   @DF-RHF iter  17:  -449.68733919915189   -4.54747e-13   6.66387e-11 DIIS
  Energy and wave function converged.


  ==> Post-Iterations <==

    Orbital Energies [Eh]
    ---------------------

    Doubly Occupied:

       1A    -15.636161     2A    -15.636161     3A    -15.550258
       4A    -15.550258     5A    -11.299971     6A    -11.299971
       7A    -11.262270     8A    -11.262270     9A    -11.244761
      10A    -11.244761    11A     -1.351948    12A     -1.351948
      13A     -1.168170    14A     -1.168170    15A     -1.011188
      16A     -1.011188    17A     -0.823473    18A     -0.823473
      19A     -0.802823    20A     -0.802823    21A     -0.759747
      22A     -0.759747    23A     -0.609182    24A     -0.609182
      25A     -0.603042    26A     -0.603042    27A     -0.601029
      28A     -0.601029    29A     -0.570019    30A     -0.570019
      31A     -0.434516    32A     -0.434516    33A     -0.399533
      34A     -0.399533    35A     -0.319779    36A     -0.319779

    Virtual:

      37A      0.026185    38A      0.026185    39A      0.042423
      40A      0.042423    41A      0.050901    42A      0.050902
      43A      0.062742    44A      0.062742    45A      0.090025
      46A      0.090025    47A      0.102424    48A      0.102424
      49A      0.121766    50A      0.121766    51A      0.126405
      52A      0.126405    53A      0.134275    54A      0.134275
      55A      0.134670    56A      0.134670    57A      0.141831
      58A      0.141831    59A      0.157267    60A      0.157267
      61A      0.159716    62A      0.159717    63A      0.172828
      64A      0.172828    65A      0.179091    66A      0.179091
      67A      0.188185    68A      0.188185    69A      0.212539
      70A      0.212539    71A      0.221160    72A      0.221160
      73A      0.233305    74A      0.233305    75A      0.242286
      76A      0.242286    77A      0.262505    78A      0.262505
      79A      0.268854    80A      0.268854    81A      0.278901
      82A      0.278901    83A      0.302660    84A      0.302660
      85A      0.315487    86A      0.315487    87A      0.339084
      88A      0.339084    89A      0.362341    90A      0.362341
      91A      0.371627    92A      0.371627    93A      0.380669
      94A      0.380669    95A      0.389187    96A      0.389187
      97A      0.397984    98A      0.397984    99A      0.417975
     100A      0.417975   101A      0.429953   102A      0.429953
     103A      0.452980   104A      0.452980   105A      0.467268
     106A      0.467268   107A      0.482129   108A      0.482129
     109A      0.487157   110A      0.487157   111A      0.489068
     112A      0.489068   113A      0.552623   114A      0.552623
     115A      0.557270   116A      0.557270   117A      0.569190
     118A      0.569190   119A      0.577426   120A      0.577426
     121A      0.595140   122A      0.595140   123A      0.599823
     124A      0.599823   125A      0.616999   126A      0.616999
     127A      0.637415   128A      0.637415   129A      0.653428
     130A      0.653428   131A      0.670192   132A      0.670192
     133A      0.672240   134A      0.672240   135A      0.679099
     136A      0.679099   137A      0.684748   138A      0.684748
     139A      0.715599   140A      0.715599   141A      0.726652
     142A      0.726652   143A      0.742155   144A      0.742155
     145A      0.763623   146A      0.763623   147A      0.768330
     148A      0.768330   149A      0.791830   150A      0.791830
     151A      0.794571   152A      0.794571   153A      0.810653
     154A      0.810654   155A      0.861308   156A      0.861308
     157A      0.872329   158A      0.872329   159A      0.886704
     160A      0.886704   161A      0.890683   162A      0.890683
     163A      0.955265   164A      0.955265   165A      0.977883
     166A      0.977883   167A      0.999303   168A      0.999303
     169A      1.011663   170A      1.011663   171A      1.018315
     172A      1.018315   173A      1.031605   174A      1.031605
     175A      1.078307   176A      1.078307   177A      1.085484
     178A      1.085484   179A      1.127893   180A      1.127893
     181A      1.141421   182A      1.141421   183A      1.150481
     184A      1.150481   185A      1.168087   186A      1.168088
     187A      1.218383   188A      1.218383   189A      1.261606
     190A      1.261606   191A      1.303446   192A      1.303446
     193A      1.385951   194A      1.385951   195A      1.399090
     196A      1.399090   197A      1.452072   198A      1.452072
     199A      1.504220   200A      1.504220   201A      1.519320
     202A      1.519320   203A      1.575021   204A      1.575021
     205A      1.575201   206A      1.575201   207A      1.597285
     208A      1.597285   209A      1.653079   210A      1.653079
     211A      1.672398   212A      1.672398   213A      1.706173
     214A      1.706173   215A      1.725443   216A      1.725443
     217A      1.783537   218A      1.783537   219A      1.799965
     220A      1.799965   221A      1.807960   222A      1.807960
     223A      1.865881   224A      1.865881   225A      1.882427
     226A      1.882427   227A      1.925330   228A      1.925330
     229A      1.965907   230A      1.965907   231A      2.022899
     232A      2.022899   233A      2.026331   234A      2.026331
     235A      2.073889   236A      2.073889   237A      2.107965
     238A      2.107965   239A      2.127654   240A      2.127654
     241A      2.136859   242A      2.136859   243A      2.169573
     244A      2.169573   245A      2.179724   246A      2.179724
     247A      2.267995   248A      2.267995   249A      2.276897
     250A      2.276897   251A      2.301865   252A      2.301865
     253A      2.333003   254A      2.333003   255A      2.418646
     256A      2.418646   257A      2.497831   258A      2.497831
     259A      2.514953   260A      2.514953   261A      2.546263
     262A      2.546263   263A      2.586648   264A      2.586648
     265A      2.634680   266A      2.634680   267A      2.734986
     268A      2.734986   269A      2.747958   270A      2.747958
     271A      2.767994   272A      2.767994   273A      2.795067
     274A      2.795067   275A      2.804375   276A      2.804375
     277A      2.838549   278A      2.838549   279A      2.868147
     280A      2.868147   281A      2.953654   282A      2.953654
     283A      2.981802   284A      2.981802   285A      3.052102
     286A      3.052102   287A      3.070822   288A      3.070822
     289A      3.200095   290A      3.200095   291A      3.209712
     292A      3.209712   293A      3.335747   294A      3.335747
     295A      3.355497   296A      3.355497   297A      3.519478
     298A      3.519478   299A      3.769223   300A      3.769223
     301A      4.109916   302A      4.109916

    Final Occupation by Irrep:
              A
    DOCC [    36 ]

  @DF-RHF Final Energy:  -449.68733919915189

   => Energetics <=

    Nuclear Repulsion Energy =            362.2444209690279990
    One-Electron Energy =               -1326.0720479900942337
    Two-Electron Energy =                 514.1402878219143986
    Total Energy =                       -449.6873391991518929

Computation Completed


Properties will be evaluated at   0.000000,   0.000000,   0.000000 [a0]

Properties computed using the SCF density matrix

  Nuclear Dipole Moment: [e a0]
     X:  -970.2591      Y:   397.9244      Z:  1187.2817

  Electronic Dipole Moment: [e a0]
     X:   970.2591      Y:  -397.9244      Z: -1187.2817

  Dipole Moment: [e a0]
     X:    -0.0000      Y:    -0.0000      Z:    -0.0000     Total:     0.0000

  Dipole Moment: [D]
     X:    -0.0000      Y:    -0.0000      Z:    -0.0000     Total:     0.0000


*** tstop() called on ds1 at Tue Sep 14 17:38:29 2021
Module time:
	user time   =      22.25 seconds =       0.37 minutes
	system time =       0.57 seconds =       0.01 minutes
	total time  =          4 seconds =       0.07 minutes
Total time:
	user time   =      22.25 seconds =       0.37 minutes
	system time =       0.57 seconds =       0.01 minutes
	total time  =          4 seconds =       0.07 minutes

  //>>>>>>>>>>>>>>>>>>>>>>>>>>>>>>>>>>>//
  //            Monomer A HF           //
  //<<<<<<<<<<<<<<<<<<<<<<<<<<<<<<<<<<<//


*** tstart() called on ds1
*** at Tue Sep 14 17:38:29 2021

   => Loading Basis Set <=

    Name: AUG-CC-PVDZ
    Role: ORBITAL
    Keyword: BASIS
    atoms 1-2, 10-11 entry N          line   218 file /theoryfs2/ds/csargent/miniconda3/envs/cle/share/psi4/basis/aug-cc-pvdz.gbs
    atoms 3-6, 12-15 entry H          line    40 file /theoryfs2/ds/csargent/miniconda3/envs/cle/share/psi4/basis/aug-cc-pvdz.gbs
    atoms 7-9, 16-18 entry C          line   182 file /theoryfs2/ds/csargent/miniconda3/envs/cle/share/psi4/basis/aug-cc-pvdz.gbs


         ---------------------------------------------------------
                                   SCF
               by Justin Turney, Rob Parrish, Andy Simmonett
                          and Daniel G. A. Smith
                              RHF Reference
                        6 Threads,   6675 MiB Core
         ---------------------------------------------------------

  ==> Geometry <==

    Molecular point group: c1
    Full point group: C1

    Geometry (in Bohr), charge = 0, multiplicity = 1:

       Center              X                  Y                   Z               Mass
    ------------   -----------------  -----------------  -----------------  -----------------
         N           -4.293096210000    -3.068374310000     5.305162310000    14.003074004430
         N           -2.158473710000    -2.926272960000     1.720374480000    14.003074004430
         H           -0.025455870000    -6.359035750000     2.220464520000     1.007825032230
         H           -2.685669680000    -6.532602410000     6.614459540000     1.007825032230
         H           -4.743884230000    -0.006090060000     2.756159680000     1.007825032230
         H           -1.410455400000    -2.247231470000     0.000000000000     1.007825032230
         C           -1.437379910000    -5.075048480000     2.940658910000    12.000000000000
         C           -2.769007820000    -5.146099160000     5.135228800000    12.000000000000
         C           -3.859550360000    -1.777281980000     3.210934110000    12.000000000000
      Gh(N)         -22.658544390000    14.121829910000    27.674885760000    14.003074004430
      Gh(N)         -24.793166890000    13.979728550000    31.259673600000    14.003074004430
      Gh(H)         -26.926184740000    17.412491340000    30.759583560000     1.007825032230
      Gh(H)         -24.265970920000    17.586058000000    26.365588540000     1.007825032230
      Gh(H)         -22.207756380000    11.059545650000    30.223888400000     1.007825032230
      Gh(H)         -25.541185200000    13.300687060000    32.980048080000     1.007825032230
      Gh(C)         -25.514260690000    16.128504080000    30.039389160000    12.000000000000
      Gh(C)         -24.182632780000    16.199554760000    27.844819270000    12.000000000000
      Gh(C)         -23.092090250000    12.830737570000    29.769113960000    12.000000000000

  Running in c1 symmetry.

  Rotational constants: A =      0.02923  B =      0.00053  C =      0.00052 [cm^-1]
  Rotational constants: A =    876.38711  B =     15.86488  C =     15.60427 [MHz]
  Nuclear repulsion =  164.086695994184396

  Charge       = 0
  Multiplicity = 1
  Electrons    = 36
  Nalpha       = 18
  Nbeta        = 18

  ==> Algorithm <==

  SCF Algorithm Type is DF.
  DIIS enabled.
  MOM disabled.
  Fractional occupation disabled.
  Guess Type is SAD.
  Energy threshold   = 1.00e-10
  Density threshold  = 1.00e-10
  Integral threshold = 1.00e-12

  ==> Primary Basis <==

  Basis Set: AUG-CC-PVDZ
    Blend: AUG-CC-PVDZ
    Number of shells: 130
    Number of basis functions: 302
    Number of Cartesian functions: 322
    Spherical Harmonics?: true
    Max angular momentum: 2

   => Loading Basis Set <=

    Name: (AUG-CC-PVDZ AUX)
    Role: JKFIT
    Keyword: DF_BASIS_SCF
    atoms 1-2, 10-11 entry N          line   212 file /theoryfs2/ds/csargent/miniconda3/envs/cle/share/psi4/basis/aug-cc-pvdz-jkfit.gbs
    atoms 3-6, 12-15 entry H          line    70 file /theoryfs2/ds/csargent/miniconda3/envs/cle/share/psi4/basis/aug-cc-pvdz-jkfit.gbs
    atoms 7-9, 16-18 entry C          line   154 file /theoryfs2/ds/csargent/miniconda3/envs/cle/share/psi4/basis/aug-cc-pvdz-jkfit.gbs

  ==> Integral Setup <==

  ==> DiskDFJK: Density-Fitted J/K Matrices <==

    J tasked:                  Yes
    K tasked:                  Yes
    wK tasked:                  No
    OpenMP threads:              6
    Integrals threads:           6
    Memory [MiB]:             5006
    Algorithm:                Core
    Integral Cache:           LOAD
    Schwarz Cutoff:          1E-12
    Fitting Condition:       1E-10

   => Auxiliary Basis Set <=

  Basis Set: (AUG-CC-PVDZ AUX)
    Blend: AUG-CC-PVDZ-JKFIT
    Number of shells: 376
    Number of basis functions: 1116
    Number of Cartesian functions: 1290
    Spherical Harmonics?: true
    Max angular momentum: 3

  Minimum eigenvalue in the overlap matrix is 2.1837060961E-05.
  Reciprocal condition number of the overlap matrix is 1.8394512419E-06.
    Using symmetric orthogonalization.

  ==> Pre-Iterations <==

  SCF Guess: Superposition of Atomic Densities via on-the-fly atomic UHF (no occupation information).

   -------------------------
    Irrep   Nso     Nmo
   -------------------------
     A        302     302
   -------------------------
    Total     302     302
   -------------------------

  ==> Iterations <==

                           Total Energy        Delta E     RMS |[F,P]|

   @DF-RHF iter SAD:  -224.55857169559590   -2.24559e+02   0.00000e+00
   @DF-RHF iter   1:  -224.69806464733196   -1.39493e-01   1.63067e-03 DIIS
   @DF-RHF iter   2:  -224.80532026629422   -1.07256e-01   9.27384e-04 DIIS
   @DF-RHF iter   3:  -224.84168817037258   -3.63679e-02   1.74019e-04 DIIS
   @DF-RHF iter   4:  -224.84337342245797   -1.68525e-03   7.98972e-05 DIIS
   @DF-RHF iter   5:  -224.84367500317242   -3.01581e-04   1.26452e-05 DIIS
   @DF-RHF iter   6:  -224.84369234020573   -1.73370e-05   5.61871e-06 DIIS
   @DF-RHF iter   7:  -224.84369542827531   -3.08807e-06   2.19503e-06 DIIS
   @DF-RHF iter   8:  -224.84369616019342   -7.31918e-07   7.77587e-07 DIIS
   @DF-RHF iter   9:  -224.84369627098775   -1.10794e-07   1.87961e-07 DIIS
   @DF-RHF iter  10:  -224.84369627652302   -5.53527e-09   7.33125e-08 DIIS
   @DF-RHF iter  11:  -224.84369627734938   -8.26361e-10   3.26918e-08 DIIS
   @DF-RHF iter  12:  -224.84369627750181   -1.52426e-10   9.70884e-09 DIIS
   @DF-RHF iter  13:  -224.84369627751494   -1.31308e-11   3.58840e-09 DIIS
   @DF-RHF iter  14:  -224.84369627751641   -1.47793e-12   1.58275e-09 DIIS
   @DF-RHF iter  15:  -224.84369627751713   -7.10543e-13   5.27556e-10 DIIS
   @DF-RHF iter  16:  -224.84369627751710    2.84217e-14   2.34517e-10 DIIS
   @DF-RHF iter  17:  -224.84369627751730   -1.98952e-13   4.71141e-11 DIIS
  Energy and wave function converged.


  ==> Post-Iterations <==

    Orbital Energies [Eh]
    ---------------------

    Doubly Occupied:

       1A    -15.637071     2A    -15.551216     3A    -11.300916
       4A    -11.263160     5A    -11.245653     6A     -1.352867
       7A     -1.169098     8A     -1.012098     9A     -0.824390
      10A     -0.803731    11A     -0.760666    12A     -0.610096
      13A     -0.603958    14A     -0.601922    15A     -0.570942
      16A     -0.435483    17A     -0.400464    18A     -0.320685

    Virtual:

      19A      0.023563    20A      0.025388    21A      0.041161
      22A      0.041580    23A      0.044507    24A      0.049997
      25A      0.061864    26A      0.068656    27A      0.077558
      28A      0.087259    29A      0.089096    30A      0.098613
      31A      0.101397    32A      0.120831    33A      0.125577
      34A      0.125588    35A      0.126017    36A      0.127794
      37A      0.128269    38A      0.133472    39A      0.133773
      40A      0.135238    41A      0.139063    42A      0.140942
      43A      0.156500    44A      0.157639    45A      0.158699
      46A      0.171988    47A      0.178189    48A      0.187224
      49A      0.193162    50A      0.208755    51A      0.210403
      52A      0.211559    53A      0.213649    54A      0.220268
      55A      0.221402    56A      0.223656    57A      0.232359
      58A      0.234093    59A      0.241408    60A      0.261605
      61A      0.267803    62A      0.273182    63A      0.277911
      64A      0.300519    65A      0.301746    66A      0.307496
      67A      0.314442    68A      0.320263    69A      0.338197
      70A      0.361284    71A      0.361488    72A      0.370745
      73A      0.376436    74A      0.379800    75A      0.388291
      76A      0.394490    77A      0.397097    78A      0.417031
      79A      0.428356    80A      0.429000    81A      0.436122
      82A      0.441431    83A      0.450040    84A      0.452059
      85A      0.453141    86A      0.466350    87A      0.469124
      88A      0.481229    89A      0.482106    90A      0.486283
      91A      0.488151    92A      0.518391    93A      0.521590
      94A      0.537073    95A      0.539242    96A      0.544142
      97A      0.551710    98A      0.556382    99A      0.556901
     100A      0.568280   101A      0.576474   102A      0.580393
     103A      0.588619   104A      0.594249   105A      0.598939
     106A      0.607454   107A      0.613185   108A      0.616080
     109A      0.619386   110A      0.636538   111A      0.640763
     112A      0.652504   113A      0.669282   114A      0.671337
     115A      0.678185   116A      0.678682   117A      0.683874
     118A      0.684804   119A      0.712284   120A      0.714698
     121A      0.725758   122A      0.737114   123A      0.741238
     124A      0.757187   125A      0.762698   126A      0.767400
     127A      0.790929   128A      0.793606   129A      0.799271
     130A      0.809747   131A      0.811522   132A      0.813610
     133A      0.824248   134A      0.837645   135A      0.860398
     136A      0.860634   137A      0.871425   138A      0.885765
     139A      0.887639   140A      0.889823   141A      0.910808
     142A      0.920714   143A      0.927977   144A      0.954351
     145A      0.969809   146A      0.976964   147A      0.992926
     148A      0.998360   149A      1.010706   150A      1.016513
     151A      1.017404   152A      1.030676   153A      1.060039
     154A      1.077353   155A      1.079677   156A      1.084552
     157A      1.104735   158A      1.117046   159A      1.126983
     160A      1.133515   161A      1.140497   162A      1.149565
     163A      1.167170   164A      1.171953   165A      1.175174
     166A      1.198662   167A      1.211662   168A      1.217445
     169A      1.260721   170A      1.279174   171A      1.291767
     172A      1.298115   173A      1.302539   174A      1.313661
     175A      1.319204   176A      1.348702   177A      1.385028
     178A      1.385165   179A      1.398145   180A      1.451143
     181A      1.496028   182A      1.503288   183A      1.516953
     184A      1.518410   185A      1.542426   186A      1.574127
     187A      1.574285   188A      1.596381   189A      1.652159
     190A      1.662031   191A      1.671505   192A      1.705286
     193A      1.724477   194A      1.782643   195A      1.799067
     196A      1.807063   197A      1.864950   198A      1.881477
     199A      1.924391   200A      1.964987   201A      2.022005
     202A      2.025429   203A      2.040748   204A      2.072981
     205A      2.102202   206A      2.107054   207A      2.120616
     208A      2.126759   209A      2.132476   210A      2.135965
     211A      2.150588   212A      2.168670   213A      2.178815
     214A      2.186127   215A      2.230831   216A      2.253873
     217A      2.267082   218A      2.275963   219A      2.300924
     220A      2.309764   221A      2.328361   222A      2.332072
     223A      2.378072   224A      2.406714   225A      2.414456
     226A      2.417758   227A      2.456855   228A      2.472009
     229A      2.495066   230A      2.496919   231A      2.514025
     232A      2.527099   233A      2.545345   234A      2.546682
     235A      2.578017   236A      2.585743   237A      2.601049
     238A      2.633765   239A      2.697366   240A      2.734093
     241A      2.747025   242A      2.767089   243A      2.791681
     244A      2.794149   245A      2.803444   246A      2.830036
     247A      2.837641   248A      2.867213   249A      2.897131
     250A      2.934448   251A      2.950614   252A      2.952738
     253A      2.980862   254A      3.044837   255A      3.051201
     256A      3.069910   257A      3.077475   258A      3.133246
     259A      3.160962   260A      3.184264   261A      3.199163
     262A      3.208795   263A      3.214701   264A      3.334816
     265A      3.342132   266A      3.354572   267A      3.356075
     268A      3.364154   269A      3.459986   270A      3.495853
     271A      3.518552   272A      3.570870   273A      3.610312
     274A      3.708557   275A      3.728037   276A      3.768294
     277A      3.779695   278A      3.799497   279A      3.859234
     280A      3.872090   281A      4.005237   282A      4.109022
     283A      4.214108   284A      4.638062   285A      4.640156
     286A      4.697305   287A      4.773158   288A      4.881407
     289A      5.022752   290A      5.256084   291A      5.374541
     292A      5.496216   293A      5.611674   294A      5.717598
     295A      5.885298   296A      6.091005   297A      6.199547
     298A     18.256749   299A     18.591575   300A     19.301707
     301A     25.313377   302A     25.454584

    Final Occupation by Irrep:
              A
    DOCC [    18 ]

  @DF-RHF Final Energy:  -224.84369627751730

   => Energetics <=

    Nuclear Repulsion Energy =            164.0866959941843959
    One-Electron Energy =                -628.9319562965126806
    Two-Electron Energy =                 240.0015640248109605
    Total Energy =                       -224.8436962775172958

Computation Completed


Properties will be evaluated at   0.000000,   0.000000,   0.000000 [a0]

Properties computed using the SCF density matrix

  Nuclear Dipole Moment: [e a0]
     X:  -102.4221      Y:  -129.0981      Z:   128.4908

  Electronic Dipole Moment: [e a0]
     X:   103.2259      Y:   129.2613      Z:  -129.8232

  Dipole Moment: [e a0]
     X:     0.8038      Y:     0.1633      Z:    -1.3324     Total:     1.5646

  Dipole Moment: [D]
     X:     2.0431      Y:     0.4150      Z:    -3.3867     Total:     3.9769


*** tstop() called on ds1 at Tue Sep 14 17:38:33 2021
Module time:
	user time   =      15.68 seconds =       0.26 minutes
	system time =       0.34 seconds =       0.01 minutes
	total time  =          4 seconds =       0.07 minutes
Total time:
	user time   =      38.16 seconds =       0.64 minutes
	system time =       0.92 seconds =       0.02 minutes
	total time  =          8 seconds =       0.13 minutes

  //>>>>>>>>>>>>>>>>>>>>>>>>>>>>>>>>>>>//
  //            Monomer B HF           //
  //<<<<<<<<<<<<<<<<<<<<<<<<<<<<<<<<<<<//


*** tstart() called on ds1
*** at Tue Sep 14 17:38:33 2021

   => Loading Basis Set <=

    Name: AUG-CC-PVDZ
    Role: ORBITAL
    Keyword: BASIS
    atoms 1-2, 10-11 entry N          line   218 file /theoryfs2/ds/csargent/miniconda3/envs/cle/share/psi4/basis/aug-cc-pvdz.gbs
    atoms 3-6, 12-15 entry H          line    40 file /theoryfs2/ds/csargent/miniconda3/envs/cle/share/psi4/basis/aug-cc-pvdz.gbs
    atoms 7-9, 16-18 entry C          line   182 file /theoryfs2/ds/csargent/miniconda3/envs/cle/share/psi4/basis/aug-cc-pvdz.gbs


         ---------------------------------------------------------
                                   SCF
               by Justin Turney, Rob Parrish, Andy Simmonett
                          and Daniel G. A. Smith
                              RHF Reference
                        6 Threads,   6675 MiB Core
         ---------------------------------------------------------

  ==> Geometry <==

    Molecular point group: c1
    Full point group: C1

    Geometry (in Bohr), charge = 0, multiplicity = 1:

       Center              X                  Y                   Z               Mass
    ------------   -----------------  -----------------  -----------------  -----------------
      Gh(N)          -4.293096210000    -3.068374310000     5.305162310000    14.003074004430
      Gh(N)          -2.158473710000    -2.926272960000     1.720374480000    14.003074004430
      Gh(H)          -0.025455870000    -6.359035750000     2.220464520000     1.007825032230
      Gh(H)          -2.685669680000    -6.532602410000     6.614459540000     1.007825032230
      Gh(H)          -4.743884230000    -0.006090060000     2.756159680000     1.007825032230
      Gh(H)          -1.410455400000    -2.247231470000     0.000000000000     1.007825032230
      Gh(C)          -1.437379910000    -5.075048480000     2.940658910000    12.000000000000
      Gh(C)          -2.769007820000    -5.146099160000     5.135228800000    12.000000000000
      Gh(C)          -3.859550360000    -1.777281980000     3.210934110000    12.000000000000
         N          -22.658544390000    14.121829910000    27.674885760000    14.003074004430
         N          -24.793166890000    13.979728550000    31.259673600000    14.003074004430
         H          -26.926184740000    17.412491340000    30.759583560000     1.007825032230
         H          -24.265970920000    17.586058000000    26.365588540000     1.007825032230
         H          -22.207756380000    11.059545650000    30.223888400000     1.007825032230
         H          -25.541185200000    13.300687060000    32.980048080000     1.007825032230
         C          -25.514260690000    16.128504080000    30.039389160000    12.000000000000
         C          -24.182632780000    16.199554760000    27.844819270000    12.000000000000
         C          -23.092090250000    12.830737570000    29.769113960000    12.000000000000

  Running in c1 symmetry.

  Rotational constants: A =      0.02923  B =      0.00053  C =      0.00052 [cm^-1]
  Rotational constants: A =    876.38711  B =     15.86488  C =     15.60427 [MHz]
  Nuclear repulsion =  164.086695794063814

  Charge       = 0
  Multiplicity = 1
  Electrons    = 36
  Nalpha       = 18
  Nbeta        = 18

  ==> Algorithm <==

  SCF Algorithm Type is DF.
  DIIS enabled.
  MOM disabled.
  Fractional occupation disabled.
  Guess Type is SAD.
  Energy threshold   = 1.00e-10
  Density threshold  = 1.00e-10
  Integral threshold = 1.00e-12

  ==> Primary Basis <==

  Basis Set: AUG-CC-PVDZ
    Blend: AUG-CC-PVDZ
    Number of shells: 130
    Number of basis functions: 302
    Number of Cartesian functions: 322
    Spherical Harmonics?: true
    Max angular momentum: 2

   => Loading Basis Set <=

    Name: (AUG-CC-PVDZ AUX)
    Role: JKFIT
    Keyword: DF_BASIS_SCF
    atoms 1-2, 10-11 entry N          line   212 file /theoryfs2/ds/csargent/miniconda3/envs/cle/share/psi4/basis/aug-cc-pvdz-jkfit.gbs
    atoms 3-6, 12-15 entry H          line    70 file /theoryfs2/ds/csargent/miniconda3/envs/cle/share/psi4/basis/aug-cc-pvdz-jkfit.gbs
    atoms 7-9, 16-18 entry C          line   154 file /theoryfs2/ds/csargent/miniconda3/envs/cle/share/psi4/basis/aug-cc-pvdz-jkfit.gbs

  ==> Integral Setup <==

  ==> DiskDFJK: Density-Fitted J/K Matrices <==

    J tasked:                  Yes
    K tasked:                  Yes
    wK tasked:                  No
    OpenMP threads:              6
    Integrals threads:           6
    Memory [MiB]:             5006
    Algorithm:                Core
    Integral Cache:           LOAD
    Schwarz Cutoff:          1E-12
    Fitting Condition:       1E-10

   => Auxiliary Basis Set <=

  Basis Set: (AUG-CC-PVDZ AUX)
    Blend: AUG-CC-PVDZ-JKFIT
    Number of shells: 376
    Number of basis functions: 1116
    Number of Cartesian functions: 1290
    Spherical Harmonics?: true
    Max angular momentum: 3

  Minimum eigenvalue in the overlap matrix is 2.1837060961E-05.
  Reciprocal condition number of the overlap matrix is 1.8394512419E-06.
    Using symmetric orthogonalization.

  ==> Pre-Iterations <==

  SCF Guess: Superposition of Atomic Densities via on-the-fly atomic UHF (no occupation information).

   -------------------------
    Irrep   Nso     Nmo
   -------------------------
     A        302     302
   -------------------------
    Total     302     302
   -------------------------

  ==> Iterations <==

                           Total Energy        Delta E     RMS |[F,P]|

   @DF-RHF iter SAD:  -224.55857167720771   -2.24559e+02   0.00000e+00
   @DF-RHF iter   1:  -224.69806464817043   -1.39493e-01   1.63067e-03 DIIS
   @DF-RHF iter   2:  -224.80532026662516   -1.07256e-01   9.27384e-04 DIIS
   @DF-RHF iter   3:  -224.84168817074499   -3.63679e-02   1.74019e-04 DIIS
   @DF-RHF iter   4:  -224.84337342285130   -1.68525e-03   7.98972e-05 DIIS
   @DF-RHF iter   5:  -224.84367500357098   -3.01581e-04   1.26452e-05 DIIS
   @DF-RHF iter   6:  -224.84369234060472   -1.73370e-05   5.61871e-06 DIIS
   @DF-RHF iter   7:  -224.84369542867390   -3.08807e-06   2.19503e-06 DIIS
   @DF-RHF iter   8:  -224.84369616059195   -7.31918e-07   7.77587e-07 DIIS
   @DF-RHF iter   9:  -224.84369627138616   -1.10794e-07   1.87961e-07 DIIS
   @DF-RHF iter  10:  -224.84369627692166   -5.53550e-09   7.33125e-08 DIIS
   @DF-RHF iter  11:  -224.84369627774811   -8.26446e-10   3.26918e-08 DIIS
   @DF-RHF iter  12:  -224.84369627789999   -1.51886e-10   9.70884e-09 DIIS
   @DF-RHF iter  13:  -224.84369627791335   -1.33582e-11   3.58840e-09 DIIS
   @DF-RHF iter  14:  -224.84369627791494   -1.59162e-12   1.58275e-09 DIIS
   @DF-RHF iter  15:  -224.84369627791531   -3.69482e-13   5.27556e-10 DIIS
   @DF-RHF iter  16:  -224.84369627791526    5.68434e-14   2.34517e-10 DIIS
   @DF-RHF iter  17:  -224.84369627791554   -2.84217e-13   4.71137e-11 DIIS
  Energy and wave function converged.


  ==> Post-Iterations <==

    Orbital Energies [Eh]
    ---------------------

    Doubly Occupied:

       1A    -15.637071     2A    -15.551216     3A    -11.300916
       4A    -11.263160     5A    -11.245653     6A     -1.352867
       7A     -1.169098     8A     -1.012098     9A     -0.824390
      10A     -0.803731    11A     -0.760666    12A     -0.610096
      13A     -0.603958    14A     -0.601922    15A     -0.570942
      16A     -0.435483    17A     -0.400464    18A     -0.320685

    Virtual:

      19A      0.023563    20A      0.025388    21A      0.041161
      22A      0.041580    23A      0.044507    24A      0.049997
      25A      0.061864    26A      0.068656    27A      0.077558
      28A      0.087259    29A      0.089096    30A      0.098613
      31A      0.101397    32A      0.120831    33A      0.125577
      34A      0.125588    35A      0.126017    36A      0.127794
      37A      0.128269    38A      0.133472    39A      0.133773
      40A      0.135238    41A      0.139063    42A      0.140942
      43A      0.156500    44A      0.157639    45A      0.158699
      46A      0.171988    47A      0.178189    48A      0.187224
      49A      0.193162    50A      0.208755    51A      0.210403
      52A      0.211559    53A      0.213649    54A      0.220268
      55A      0.221402    56A      0.223656    57A      0.232359
      58A      0.234093    59A      0.241408    60A      0.261605
      61A      0.267803    62A      0.273182    63A      0.277911
      64A      0.300519    65A      0.301746    66A      0.307496
      67A      0.314442    68A      0.320263    69A      0.338197
      70A      0.361284    71A      0.361488    72A      0.370745
      73A      0.376436    74A      0.379800    75A      0.388291
      76A      0.394490    77A      0.397097    78A      0.417031
      79A      0.428356    80A      0.429000    81A      0.436122
      82A      0.441431    83A      0.450040    84A      0.452059
      85A      0.453141    86A      0.466350    87A      0.469124
      88A      0.481229    89A      0.482106    90A      0.486283
      91A      0.488151    92A      0.518391    93A      0.521590
      94A      0.537073    95A      0.539242    96A      0.544142
      97A      0.551710    98A      0.556382    99A      0.556901
     100A      0.568280   101A      0.576474   102A      0.580393
     103A      0.588619   104A      0.594249   105A      0.598939
     106A      0.607454   107A      0.613185   108A      0.616080
     109A      0.619386   110A      0.636538   111A      0.640763
     112A      0.652504   113A      0.669282   114A      0.671337
     115A      0.678185   116A      0.678682   117A      0.683874
     118A      0.684804   119A      0.712284   120A      0.714698
     121A      0.725758   122A      0.737114   123A      0.741238
     124A      0.757187   125A      0.762698   126A      0.767400
     127A      0.790929   128A      0.793606   129A      0.799271
     130A      0.809747   131A      0.811522   132A      0.813610
     133A      0.824248   134A      0.837645   135A      0.860398
     136A      0.860634   137A      0.871425   138A      0.885765
     139A      0.887639   140A      0.889823   141A      0.910808
     142A      0.920714   143A      0.927977   144A      0.954351
     145A      0.969809   146A      0.976964   147A      0.992926
     148A      0.998360   149A      1.010706   150A      1.016513
     151A      1.017404   152A      1.030676   153A      1.060039
     154A      1.077353   155A      1.079677   156A      1.084552
     157A      1.104735   158A      1.117046   159A      1.126983
     160A      1.133515   161A      1.140497   162A      1.149565
     163A      1.167170   164A      1.171953   165A      1.175174
     166A      1.198662   167A      1.211662   168A      1.217445
     169A      1.260721   170A      1.279174   171A      1.291767
     172A      1.298115   173A      1.302539   174A      1.313661
     175A      1.319204   176A      1.348702   177A      1.385028
     178A      1.385165   179A      1.398145   180A      1.451143
     181A      1.496028   182A      1.503288   183A      1.516953
     184A      1.518410   185A      1.542426   186A      1.574127
     187A      1.574285   188A      1.596381   189A      1.652159
     190A      1.662031   191A      1.671505   192A      1.705286
     193A      1.724477   194A      1.782643   195A      1.799067
     196A      1.807063   197A      1.864950   198A      1.881477
     199A      1.924391   200A      1.964987   201A      2.022005
     202A      2.025429   203A      2.040748   204A      2.072981
     205A      2.102202   206A      2.107054   207A      2.120616
     208A      2.126759   209A      2.132476   210A      2.135965
     211A      2.150588   212A      2.168670   213A      2.178815
     214A      2.186127   215A      2.230831   216A      2.253873
     217A      2.267082   218A      2.275963   219A      2.300924
     220A      2.309764   221A      2.328361   222A      2.332072
     223A      2.378072   224A      2.406714   225A      2.414456
     226A      2.417758   227A      2.456855   228A      2.472009
     229A      2.495066   230A      2.496919   231A      2.514025
     232A      2.527099   233A      2.545345   234A      2.546682
     235A      2.578017   236A      2.585743   237A      2.601049
     238A      2.633765   239A      2.697366   240A      2.734093
     241A      2.747025   242A      2.767089   243A      2.791681
     244A      2.794149   245A      2.803444   246A      2.830036
     247A      2.837641   248A      2.867213   249A      2.897131
     250A      2.934448   251A      2.950614   252A      2.952738
     253A      2.980862   254A      3.044837   255A      3.051201
     256A      3.069910   257A      3.077475   258A      3.133246
     259A      3.160962   260A      3.184264   261A      3.199163
     262A      3.208795   263A      3.214701   264A      3.334816
     265A      3.342132   266A      3.354572   267A      3.356075
     268A      3.364154   269A      3.459986   270A      3.495853
     271A      3.518552   272A      3.570870   273A      3.610312
     274A      3.708557   275A      3.728037   276A      3.768294
     277A      3.779695   278A      3.799497   279A      3.859234
     280A      3.872090   281A      4.005237   282A      4.109022
     283A      4.214108   284A      4.638062   285A      4.640156
     286A      4.697305   287A      4.773158   288A      4.881407
     289A      5.022752   290A      5.256084   291A      5.374541
     292A      5.496216   293A      5.611674   294A      5.717598
     295A      5.885298   296A      6.091005   297A      6.199547
     298A     18.256749   299A     18.591575   300A     19.301707
     301A     25.313377   302A     25.454584

    Final Occupation by Irrep:
              A
    DOCC [    18 ]

  @DF-RHF Final Energy:  -224.84369627791554

   => Energetics <=

    Nuclear Repulsion Energy =            164.0866957940638144
    One-Electron Energy =                -628.9319559019847929
    Two-Electron Energy =                 240.0015638300054377
    Total Energy =                       -224.8436962779155408

Computation Completed


Properties will be evaluated at   0.000000,   0.000000,   0.000000 [a0]

Properties computed using the SCF density matrix

  Nuclear Dipole Moment: [e a0]
     X:  -867.8370      Y:   527.0225      Z:  1058.7910

  Electronic Dipole Moment: [e a0]
     X:   867.0332      Y:  -527.1857      Z: -1057.4585

  Dipole Moment: [e a0]
     X:    -0.8038      Y:    -0.1633      Z:     1.3324     Total:     1.5646

  Dipole Moment: [D]
     X:    -2.0431      Y:    -0.4150      Z:     3.3867     Total:     3.9769


*** tstop() called on ds1 at Tue Sep 14 17:38:36 2021
Module time:
	user time   =      15.81 seconds =       0.26 minutes
	system time =       0.34 seconds =       0.01 minutes
	total time  =          3 seconds =       0.05 minutes
Total time:
	user time   =      54.00 seconds =       0.90 minutes
	system time =       1.27 seconds =       0.02 minutes
	total time  =         11 seconds =       0.18 minutes
  Constructing Basis Sets for SAPT...

   => Loading Basis Set <=

    Name: (AUG-CC-PVDZ AUX)
    Role: RIFIT
    Keyword: DF_BASIS_SAPT
    atoms 1-2, 10-11 entry N          line   158 file /theoryfs2/ds/csargent/miniconda3/envs/cle/share/psi4/basis/aug-cc-pvdz-ri.gbs
    atoms 3-6, 12-15 entry H          line    30 file /theoryfs2/ds/csargent/miniconda3/envs/cle/share/psi4/basis/aug-cc-pvdz-ri.gbs
    atoms 7-9, 16-18 entry C          line   112 file /theoryfs2/ds/csargent/miniconda3/envs/cle/share/psi4/basis/aug-cc-pvdz-ri.gbs


  //>>>>>>>>>>>>>>>>>>>>>>>>>>>>>>>>>>>//
  //               SAPT0               //
  //<<<<<<<<<<<<<<<<<<<<<<<<<<<<<<<<<<<//


*** tstart() called on ds1
*** at Tue Sep 14 17:38:36 2021

        SAPT0
    Ed Hohenstein
     6 June 2009

      Orbital Information
  --------------------------
    NSO        =       302
    NMO        =       302
    NRI        =       904
    NOCC A     =        18
    NOCC B     =        18
    FOCC A     =         5
    FOCC B     =         5
    NVIR A     =       284
    NVIR B     =       284

    Elst10,r            =     0.000053486758 [Eh]
    Exch10              =     0.000000000000 [Eh]
    Exch10 (S^2)        =     0.000000000000 [Eh]

    Iter     Energy [mEh]          dE [mEh]         Residual      Time [s]
       1      -0.00006931       0.000069308       0.085624996             1
       2      -0.00006528      -0.000004026       0.023653243             1
       3      -0.00007272       0.000007434       0.008256380             1
       4      -0.00007338       0.000000668       0.003043093             1
       5      -0.00007321      -0.000000171       0.001476326             1
       6      -0.00007313      -0.000000081       0.000468461             1
       7      -0.00007316       0.000000025       0.000172368             1
       8      -0.00007317       0.000000009       0.000049498             1
       9      -0.00007316      -0.000000002       0.000019357             2
      10      -0.00007316      -0.000000001       0.000004478             2
      11      -0.00007316       0.000000000       0.000001665             2
      12      -0.00007316       0.000000000       0.000000568             2

    CHF Iterations converged


    Iter     Energy [mEh]          dE [mEh]         Residual      Time [s]
       1      -0.00006931       0.000069308       0.085624996             0
       2      -0.00006528      -0.000004026       0.023653243             0
       3      -0.00007272       0.000007434       0.008256380             0
       4      -0.00007338       0.000000668       0.003043093             0
       5      -0.00007321      -0.000000171       0.001476326             1
       6      -0.00007313      -0.000000081       0.000468461             1
       7      -0.00007316       0.000000025       0.000172368             1
       8      -0.00007317       0.000000009       0.000049498             1
       9      -0.00007316      -0.000000002       0.000019357             1
      10      -0.00007316      -0.000000001       0.000004478             1
      11      -0.00007316       0.000000000       0.000001665             1
      12      -0.00007316       0.000000000       0.000000568             1

    CHF Iterations converged

    Ind20,r (A<-B)      =    -0.000000073164 [Eh]
    Ind20,r (B<-A)      =    -0.000000073164 [Eh]
    Ind20,r             =    -0.000000146328 [Eh]
    Exch-Ind20,r (A<-B) =     0.000000000000 [Eh]
    Exch-Ind20,r (B<-A) =     0.000000000000 [Eh]
    Exch-Ind20,r        =     0.000000000000 [Eh]
    Disp20              =    -0.000000456414 [Eh]
    Disp20 (SS)         =    -0.000000228207 [Eh]
    Disp20 (OS)         =    -0.000000228207 [Eh]
    Exch-Disp20         =     0.000000000000 [Eh]
    Exch-Disp20 (SS)    =     0.000000000000 [Eh]
    Exch-Disp20 (OS)    =     0.000000000000 [Eh]

    SAPT Results
  --------------------------------------------------------------------------------------------------------
    Electrostatics                  0.05348676 [mEh]       0.03356345 [kcal/mol]       0.14042946 [kJ/mol]
      Elst10,r                      0.05348676 [mEh]       0.03356345 [kcal/mol]       0.14042946 [kJ/mol]

    Exchange                        0.00000000 [mEh]       0.00000000 [kcal/mol]       0.00000000 [kJ/mol]
      Exch10                        0.00000000 [mEh]       0.00000000 [kcal/mol]       0.00000000 [kJ/mol]
      Exch10(S^2)                   0.00000000 [mEh]       0.00000000 [kcal/mol]       0.00000000 [kJ/mol]

    Induction                      -0.00013048 [mEh]      -0.00008188 [kcal/mol]      -0.00034257 [kJ/mol]
      Ind20,r                      -0.00014633 [mEh]      -0.00009182 [kcal/mol]      -0.00038418 [kJ/mol]
      Exch-Ind20,r                  0.00000000 [mEh]       0.00000000 [kcal/mol]       0.00000000 [kJ/mol]
      delta HF,r (2)                0.00001585 [mEh]       0.00000995 [kcal/mol]       0.00004162 [kJ/mol]

    Dispersion                     -0.00045641 [mEh]      -0.00028640 [kcal/mol]      -0.00119831 [kJ/mol]
      Disp20                       -0.00045641 [mEh]      -0.00028640 [kcal/mol]      -0.00119831 [kJ/mol]
      Exch-Disp20                   0.00000000 [mEh]       0.00000000 [kcal/mol]       0.00000000 [kJ/mol]
      Disp20 (SS)                  -0.00022821 [mEh]      -0.00014320 [kcal/mol]      -0.00059916 [kJ/mol]
      Disp20 (OS)                  -0.00022821 [mEh]      -0.00014320 [kcal/mol]      -0.00059916 [kJ/mol]
      Exch-Disp20 (SS)              0.00000000 [mEh]       0.00000000 [kcal/mol]       0.00000000 [kJ/mol]
      Exch-Disp20 (OS)              0.00000000 [mEh]       0.00000000 [kcal/mol]       0.00000000 [kJ/mol]

  Total HF                          0.05335628 [mEh]       0.03348157 [kcal/mol]       0.14008690 [kJ/mol]
  Total SAPT0                       0.05289987 [mEh]       0.03319517 [kcal/mol]       0.13888858 [kJ/mol]

  Special recipe for scaled SAPT0 (see Manual):
    Electrostatics sSAPT0           0.05348676 [mEh]       0.03356345 [kcal/mol]       0.14042946 [kJ/mol]
    Exchange sSAPT0                 0.00000000 [mEh]       0.00000000 [kcal/mol]       0.00000000 [kJ/mol]
    Induction sSAPT0               -0.00013048 [mEh]      -0.00008188 [kcal/mol]      -0.00034257 [kJ/mol]
    Dispersion sSAPT0              -0.00045641 [mEh]      -0.00028640 [kcal/mol]      -0.00119831 [kJ/mol]
  Total sSAPT0                      0.05289987 [mEh]       0.03319517 [kcal/mol]       0.13888858 [kJ/mol]
  --------------------------------------------------------------------------------------------------------

*** tstop() called on ds1 at Tue Sep 14 17:38:46 2021
Module time:
	user time   =      45.37 seconds =       0.76 minutes
	system time =       3.95 seconds =       0.07 minutes
	total time  =         10 seconds =       0.17 minutes
Total time:
	user time   =     100.28 seconds =       1.67 minutes
	system time =       5.25 seconds =       0.09 minutes
	total time  =         21 seconds =       0.35 minutes


Warning! sapt0 does not have an associated derived wavefunction.The returned wavefunction is the dimer SCF wavefunction.


    Psi4 stopped on: Tuesday, 14 September 2021 05:38PM
    Psi4 wall time for execution: 0:00:21.46

*** Psi4 exiting successfully. Buy a developer a beer!
