
    -----------------------------------------------------------------------
          Psi4: An Open-Source Ab Initio Electronic Structure Package
                               Psi4 1.4rc3 

                         Git: Rev {HEAD} 080dba6 


    D. G. A. Smith, L. A. Burns, A. C. Simmonett, R. M. Parrish,
    M. C. Schieber, R. Galvelis, P. Kraus, H. Kruse, R. Di Remigio,
    A. Alenaizan, A. M. James, S. Lehtola, J. P. Misiewicz, M. Scheurer,
    R. A. Shaw, J. B. Schriber, Y. Xie, Z. L. Glick, D. A. Sirianni,
    J. S. O'Brien, J. M. Waldrop, A. Kumar, E. G. Hohenstein,
    B. P. Pritchard, B. R. Brooks, H. F. Schaefer III, A. Yu. Sokolov,
    K. Patkowski, A. E. DePrince III, U. Bozkaya, R. A. King,
    F. A. Evangelista, J. M. Turney, T. D. Crawford, C. D. Sherrill,
    J. Chem. Phys. 152(18) 184108 (2020). https://doi.org/10.1063/5.0006002

                            Additional Code Authors
    E. T. Seidl, C. L. Janssen, E. F. Valeev, M. L. Leininger,
    J. F. Gonthier, R. M. Richard, H. R. McAlexander, M. Saitow, X. Wang,
    P. Verma, and M. H. Lechner

             Previous Authors, Complete List of Code Contributors,
                       and Citations for Specific Modules
    https://github.com/psi4/psi4/blob/master/codemeta.json
    https://github.com/psi4/psi4/graphs/contributors
    http://psicode.org/psi4manual/master/introduction.html#citing-psifour

    -----------------------------------------------------------------------


    Psi4 started on: Tuesday, 14 September 2021 04:18PM

    Process ID: 32008
    Host:       ds1
    PSIDATADIR: /theoryfs2/ds/csargent/miniconda3/envs/cle/share/psi4
    Memory:     500.0 MiB
    Threads:    6
    
  ==> Input File <==

--------------------------------------------------------------------------
# PSI4 file produced by CrystaLattE

# Generated from:               imidazole.xyz
# Psithon input for N-mer:      2mer-0+173
# Number of atoms per monomer:  [9, 9]
# Number of replicas:           1
# COM priority:                 4.930432338834e-05
# Minimum COM separations:      14.431 
# Separation priority:          6.832306193984e-05
# Minimum monomer separations:  12.944 
# Cutoff priority:              2.793121075016e-06
# Nuclear repulsion energy:     375.56033486966726

memory 7 GB

molecule Dimer_0_173 {
  N           -4.29309621      -3.06837431       5.30516231 
  N           -2.15847371      -2.92627296       1.72037448 
  H           -0.02545587      -6.35903575       2.22046452 
  H           -2.68566968      -6.53260241       6.61445954 
  H           -4.74388423      -0.00609006       2.75615968 
  H           -1.41045540      -2.24723147       0.00000000 
  C           -1.43737991      -5.07504848       2.94065891 
  C           -2.76900782      -5.14609916       5.13522880 
  C           -3.85955036      -1.77728198       3.21093411 
--
  N          -10.09371015     -16.32846099     -20.87754540 
  N          -12.22833266     -16.47056235     -17.29275757 
  H          -14.36135050     -13.03779955     -17.79284761 
  H          -11.70113669     -12.86423289     -22.18684263 
  H           -9.64292214     -19.39074524     -18.32854276 
  H          -12.97635096     -17.14960383     -15.57238309 
  C          -12.94942645     -14.32178682     -18.51304200 
  C          -11.61779855     -14.25073614     -20.70761189 
  C          -10.52725601     -17.61955332     -18.78331720 
units = au
no_com
no_reorient
}

set {
  e_convergence 10
  d_convergence 10
  scf_type df
  mp2_type df
  cc_type df
  freeze_core true
}

energy('sapt0/aug-cc-pvdz')

--------------------------------------------------------------------------

  Memory set to   6.519 GiB by Python driver.

Scratch directory: /scratch/csargent/psi4.31446.79897/

Scratch directory: /scratch/csargent/psi4.31446.79897/

  //>>>>>>>>>>>>>>>>>>>>>>>>>>>>>>>>>>>//
  //              Dimer HF             //
  //<<<<<<<<<<<<<<<<<<<<<<<<<<<<<<<<<<<//


*** tstart() called on ds1
*** at Tue Sep 14 16:18:05 2021

   => Loading Basis Set <=

    Name: AUG-CC-PVDZ
    Role: ORBITAL
    Keyword: BASIS
    atoms 1-2, 10-11 entry N          line   218 file /theoryfs2/ds/csargent/miniconda3/envs/cle/share/psi4/basis/aug-cc-pvdz.gbs 
    atoms 3-6, 12-15 entry H          line    40 file /theoryfs2/ds/csargent/miniconda3/envs/cle/share/psi4/basis/aug-cc-pvdz.gbs 
    atoms 7-9, 16-18 entry C          line   182 file /theoryfs2/ds/csargent/miniconda3/envs/cle/share/psi4/basis/aug-cc-pvdz.gbs 


         ---------------------------------------------------------
                                   SCF
               by Justin Turney, Rob Parrish, Andy Simmonett
                          and Daniel G. A. Smith
                              RHF Reference
                        6 Threads,   6675 MiB Core
         ---------------------------------------------------------

  ==> Geometry <==

    Molecular point group: c1
    Full point group: C1

    Geometry (in Bohr), charge = 0, multiplicity = 1:

       Center              X                  Y                   Z               Mass       
    ------------   -----------------  -----------------  -----------------  -----------------
         N           -4.293096210000    -3.068374310000     5.305162310000    14.003074004430
         N           -2.158473710000    -2.926272960000     1.720374480000    14.003074004430
         H           -0.025455870000    -6.359035750000     2.220464520000     1.007825032230
         H           -2.685669680000    -6.532602410000     6.614459540000     1.007825032230
         H           -4.743884230000    -0.006090060000     2.756159680000     1.007825032230
         H           -1.410455400000    -2.247231470000     0.000000000000     1.007825032230
         C           -1.437379910000    -5.075048480000     2.940658910000    12.000000000000
         C           -2.769007820000    -5.146099160000     5.135228800000    12.000000000000
         C           -3.859550360000    -1.777281980000     3.210934110000    12.000000000000
         N          -10.093710150000   -16.328460990000   -20.877545400000    14.003074004430
         N          -12.228332660000   -16.470562350000   -17.292757570000    14.003074004430
         H          -14.361350500000   -13.037799550000   -17.792847610000     1.007825032230
         H          -11.701136690000   -12.864232890000   -22.186842630000     1.007825032230
         H           -9.642922140000   -19.390745240000   -18.328542760000     1.007825032230
         H          -12.976350960000   -17.149603830000   -15.572383090000     1.007825032230
         C          -12.949426450000   -14.321786820000   -18.513042000000    12.000000000000
         C          -11.617798550000   -14.250736140000   -20.707611890000    12.000000000000
         C          -10.527256010000   -17.619553320000   -18.783317200000    12.000000000000

  Running in c1 symmetry.

  Rotational constants: A =      0.02029  B =      0.00117  C =      0.00112 [cm^-1]
  Rotational constants: A =    608.18530  B =     35.04291  C =     33.54450 [MHz]
  Nuclear repulsion =  375.560334962728291

  Charge       = 0
  Multiplicity = 1
  Electrons    = 72
  Nalpha       = 36
  Nbeta        = 36

  ==> Algorithm <==

  SCF Algorithm Type is DF.
  DIIS enabled.
  MOM disabled.
  Fractional occupation disabled.
  Guess Type is SAD.
  Energy threshold   = 1.00e-10
  Density threshold  = 1.00e-10
  Integral threshold = 1.00e-12

  ==> Primary Basis <==

  Basis Set: AUG-CC-PVDZ
    Blend: AUG-CC-PVDZ
    Number of shells: 130
    Number of basis functions: 302
    Number of Cartesian functions: 322
    Spherical Harmonics?: true
    Max angular momentum: 2

   => Loading Basis Set <=

    Name: (AUG-CC-PVDZ AUX)
    Role: JKFIT
    Keyword: DF_BASIS_SCF
    atoms 1-2, 10-11 entry N          line   212 file /theoryfs2/ds/csargent/miniconda3/envs/cle/share/psi4/basis/aug-cc-pvdz-jkfit.gbs 
    atoms 3-6, 12-15 entry H          line    70 file /theoryfs2/ds/csargent/miniconda3/envs/cle/share/psi4/basis/aug-cc-pvdz-jkfit.gbs 
    atoms 7-9, 16-18 entry C          line   154 file /theoryfs2/ds/csargent/miniconda3/envs/cle/share/psi4/basis/aug-cc-pvdz-jkfit.gbs 

  ==> Integral Setup <==

  ==> DiskDFJK: Density-Fitted J/K Matrices <==

    J tasked:                  Yes
    K tasked:                  Yes
    wK tasked:                  No
    OpenMP threads:              6
    Integrals threads:           6
    Memory [MiB]:             5006
    Algorithm:                Core
    Integral Cache:           SAVE
    Schwarz Cutoff:          1E-12
    Fitting Condition:       1E-10

   => Auxiliary Basis Set <=

  Basis Set: (AUG-CC-PVDZ AUX)
    Blend: AUG-CC-PVDZ-JKFIT
    Number of shells: 376
    Number of basis functions: 1116
    Number of Cartesian functions: 1290
    Spherical Harmonics?: true
    Max angular momentum: 3

  Minimum eigenvalue in the overlap matrix is 2.1834630625E-05.
  Reciprocal condition number of the overlap matrix is 1.8392420602E-06.
    Using symmetric orthogonalization.

  ==> Pre-Iterations <==

  SCF Guess: Superposition of Atomic Densities via on-the-fly atomic UHF (no occupation information).

   -------------------------
    Irrep   Nso     Nmo    
   -------------------------
     A        302     302 
   -------------------------
    Total     302     302
   -------------------------

  ==> Iterations <==

                           Total Energy        Delta E     RMS |[F,P]|

   @DF-RHF iter SAD:  -449.11714339921980   -4.49117e+02   0.00000e+00 
   @DF-RHF iter   1:  -449.39634937886780   -2.79206e-01   2.30560e-03 DIIS
   @DF-RHF iter   2:  -449.61083672919619   -2.14487e-01   1.31061e-03 DIIS
   @DF-RHF iter   3:  -449.68346354831812   -7.26268e-02   2.45947e-04 DIIS
   @DF-RHF iter   4:  -449.68683066044701   -3.36711e-03   1.12911e-04 DIIS
   @DF-RHF iter   5:  -449.68743291447095   -6.02254e-04   1.78831e-05 DIIS
   @DF-RHF iter   6:  -449.68746756764642   -3.46532e-05   7.94343e-06 DIIS
   @DF-RHF iter   7:  -449.68747374099308   -6.17335e-06   3.10352e-06 DIIS
   @DF-RHF iter   8:  -449.68747520484914   -1.46386e-06   1.09960e-06 DIIS
   @DF-RHF iter   9:  -449.68747542655535   -2.21706e-07   2.65219e-07 DIIS
   @DF-RHF iter  10:  -449.68747543762373   -1.10684e-08   1.02998e-07 DIIS
   @DF-RHF iter  11:  -449.68747543925804   -1.63431e-09   4.62484e-08 DIIS
   @DF-RHF iter  12:  -449.68747543956056   -3.02521e-10   1.36882e-08 DIIS
   @DF-RHF iter  13:  -449.68747543958648   -2.59206e-11   5.06396e-09 DIIS
   @DF-RHF iter  14:  -449.68747543959006   -3.58114e-12   2.23778e-09 DIIS
   @DF-RHF iter  15:  -449.68747543959051   -4.54747e-13   7.45080e-10 DIIS
   @DF-RHF iter  16:  -449.68747543959051    0.00000e+00   3.30741e-10 DIIS
   @DF-RHF iter  17:  -449.68747543959034    1.70530e-13   6.66659e-11 DIIS
  Energy and wave function converged.


  ==> Post-Iterations <==

    Orbital Energies [Eh]
    ---------------------

    Doubly Occupied:                                                      

       1A    -15.637864     2A    -15.637864     3A    -15.552052  
       4A    -15.552052     5A    -11.301736     6A    -11.301736  
       7A    -11.263990     8A    -11.263990     9A    -11.246495  
      10A    -11.246495    11A     -1.353684    12A     -1.353684  
      13A     -1.169920    14A     -1.169920    15A     -1.012926  
      16A     -1.012926    17A     -0.825195    18A     -0.825195  
      19A     -0.804557    20A     -0.804557    21A     -0.761478  
      22A     -0.761478    23A     -0.610915    24A     -0.610915  
      25A     -0.604776    26A     -0.604776    27A     -0.602734  
      28A     -0.602734    29A     -0.571783    30A     -0.571783  
      31A     -0.436325    32A     -0.436325    33A     -0.401297  
      34A     -0.401297    35A     -0.321523    36A     -0.321523  

    Virtual:                                                              

      37A      0.024614    38A      0.025139    39A      0.040790  
      40A      0.040952    41A      0.049177    42A      0.049202  
      43A      0.061129    44A      0.061211    45A      0.088157  
      46A      0.088206    47A      0.100616    48A      0.100623  
      49A      0.119926    50A      0.120015    51A      0.124685  
      52A      0.124689    53A      0.132477    54A      0.132901  
      55A      0.132997    56A      0.133278    57A      0.140009  
      58A      0.140016    59A      0.155357    60A      0.156110  
      61A      0.157797    62A      0.158256    63A      0.171065  
      64A      0.171121    65A      0.177395    66A      0.177395  
      67A      0.186442    68A      0.186620    69A      0.210700  
      70A      0.210715    71A      0.219346    72A      0.219375  
      73A      0.231481    74A      0.231524    75A      0.240493  
      76A      0.240641    77A      0.260828    78A      0.260878  
      79A      0.266906    80A      0.267004    81A      0.276992  
      82A      0.277016    83A      0.300868    84A      0.300879  
      85A      0.313632    86A      0.313664    87A      0.337314  
      88A      0.337428    89A      0.360696    90A      0.360735  
      91A      0.369922    92A      0.369967    93A      0.379009  
      94A      0.379128    95A      0.387384    96A      0.387595  
      97A      0.396099    98A      0.396595    99A      0.416200  
     100A      0.416206   101A      0.428063   102A      0.428239  
     103A      0.451231   104A      0.451237   105A      0.465554  
     106A      0.465557   107A      0.480448   108A      0.480481  
     109A      0.485449   110A      0.485486   111A      0.487326  
     112A      0.487355   113A      0.550866   114A      0.550888  
     115A      0.555471   116A      0.555693   117A      0.567455  
     118A      0.567497   119A      0.575672   120A      0.575694  
     121A      0.593439   122A      0.593465   123A      0.598153  
     124A      0.598171   125A      0.615205   126A      0.615238  
     127A      0.635680   128A      0.635733   129A      0.651675  
     130A      0.651680   131A      0.668473   132A      0.668483  
     133A      0.670488   134A      0.670499   135A      0.677365  
     136A      0.677445   137A      0.683019   138A      0.683083  
     139A      0.713873   140A      0.713893   141A      0.724918  
     142A      0.725085   143A      0.740424   144A      0.740424  
     145A      0.761862   146A      0.761879   147A      0.766553  
     148A      0.766577   149A      0.790105   150A      0.790124  
     151A      0.792783   152A      0.792784   153A      0.808918  
     154A      0.808972   155A      0.859537   156A      0.859621  
     157A      0.870580   158A      0.870591   159A      0.884912  
     160A      0.884941   161A      0.888962   162A      0.888970  
     163A      0.953503   164A      0.953511   165A      0.976131  
     166A      0.976197   167A      0.997534   168A      0.997578  
     169A      1.009842   170A      1.009848   171A      1.016548  
     172A      1.016551   173A      1.029865   174A      1.029880  
     175A      1.076510   176A      1.076516   177A      1.083730  
     178A      1.083736   179A      1.126147   180A      1.126148  
     181A      1.139659   182A      1.139672   183A      1.148750  
     184A      1.148750   185A      1.166315   186A      1.166374  
     187A      1.216603   188A      1.216622   189A      1.259898  
     190A      1.259932   191A      1.301688   192A      1.301697  
     193A      1.384236   194A      1.384239   195A      1.397269  
     196A      1.397349   197A      1.450251   198A      1.450411  
     199A      1.502463   200A      1.502465   201A      1.517581  
     202A      1.517582   203A      1.573293   204A      1.573294  
     205A      1.573388   206A      1.573502   207A      1.595537  
     208A      1.595578   209A      1.651312   210A      1.651316  
     211A      1.670640   212A      1.670711   213A      1.704418  
     214A      1.704454   215A      1.723656   216A      1.723657  
     217A      1.781804   218A      1.781812   219A      1.798223  
     220A      1.798240   221A      1.806202   222A      1.806221  
     223A      1.864122   224A      1.864123   225A      1.880656  
     226A      1.880692   227A      1.923564   228A      1.923564  
     229A      1.964138   230A      1.964197   231A      2.021159  
     232A      2.021268   233A      2.024628   234A      2.024632  
     235A      2.072160   236A      2.072164   237A      2.106189  
     238A      2.106275   239A      2.125924   240A      2.125936  
     241A      2.135128   242A      2.135131   243A      2.167850  
     244A      2.167855   245A      2.178005   246A      2.178008  
     247A      2.266271   248A      2.266273   249A      2.275138  
     250A      2.275157   251A      2.300109   252A      2.300119  
     253A      2.331253   254A      2.331263   255A      2.416932  
     256A      2.416933   257A      2.496113   258A      2.496162  
     259A      2.513192   260A      2.513202   261A      2.544559  
     262A      2.544593   263A      2.584925   264A      2.584925  
     265A      2.632938   266A      2.632939   267A      2.733218  
     268A      2.733299   269A      2.746201   270A      2.746204  
     271A      2.766252   272A      2.766275   273A      2.793329  
     274A      2.793330   275A      2.802609   276A      2.802621  
     277A      2.836837   278A      2.836851   279A      2.866400  
     280A      2.866401   281A      2.951898   282A      2.951958  
     283A      2.980015   284A      2.980049   285A      3.050371  
     286A      3.050379   287A      3.069080   288A      3.069096  
     289A      3.198337   290A      3.198360   291A      3.207979  
     292A      3.207979   293A      3.334007   294A      3.334009  
     295A      3.353741   296A      3.353750   297A      3.517710  
     298A      3.517734   299A      3.767436   300A      3.767502  
     301A      4.108166   302A      4.108249  

    Final Occupation by Irrep:
              A 
    DOCC [    36 ]

  @DF-RHF Final Energy:  -449.68747543959034

   => Energetics <=

    Nuclear Repulsion Energy =            375.5603349627282910
    One-Electron Energy =               -1352.5786244374580747
    Two-Electron Energy =                 527.3308140351393831
    Total Energy =                       -449.6874754395903437

Computation Completed


Properties will be evaluated at   0.000000,   0.000000,   0.000000 [a0]

Properties computed using the SCF density matrix

  Nuclear Dipole Moment: [e a0]
     X:  -517.9250      Y:  -698.2861      Z:  -560.6058

  Electronic Dipole Moment: [e a0]
     X:   517.9250      Y:   698.2861      Z:   560.6058

  Dipole Moment: [e a0]
     X:    -0.0000      Y:     0.0000      Z:     0.0000     Total:     0.0000

  Dipole Moment: [D]
     X:    -0.0000      Y:     0.0000      Z:     0.0000     Total:     0.0000


*** tstop() called on ds1 at Tue Sep 14 16:18:10 2021
Module time:
	user time   =      24.50 seconds =       0.41 minutes
	system time =       0.56 seconds =       0.01 minutes
	total time  =          5 seconds =       0.08 minutes
Total time:
	user time   =      24.50 seconds =       0.41 minutes
	system time =       0.56 seconds =       0.01 minutes
	total time  =          5 seconds =       0.08 minutes

  //>>>>>>>>>>>>>>>>>>>>>>>>>>>>>>>>>>>//
  //            Monomer A HF           //
  //<<<<<<<<<<<<<<<<<<<<<<<<<<<<<<<<<<<//


*** tstart() called on ds1
*** at Tue Sep 14 16:18:10 2021

   => Loading Basis Set <=

    Name: AUG-CC-PVDZ
    Role: ORBITAL
    Keyword: BASIS
    atoms 1-2, 10-11 entry N          line   218 file /theoryfs2/ds/csargent/miniconda3/envs/cle/share/psi4/basis/aug-cc-pvdz.gbs 
    atoms 3-6, 12-15 entry H          line    40 file /theoryfs2/ds/csargent/miniconda3/envs/cle/share/psi4/basis/aug-cc-pvdz.gbs 
    atoms 7-9, 16-18 entry C          line   182 file /theoryfs2/ds/csargent/miniconda3/envs/cle/share/psi4/basis/aug-cc-pvdz.gbs 


         ---------------------------------------------------------
                                   SCF
               by Justin Turney, Rob Parrish, Andy Simmonett
                          and Daniel G. A. Smith
                              RHF Reference
                        6 Threads,   6675 MiB Core
         ---------------------------------------------------------

  ==> Geometry <==

    Molecular point group: c1
    Full point group: C1

    Geometry (in Bohr), charge = 0, multiplicity = 1:

       Center              X                  Y                   Z               Mass       
    ------------   -----------------  -----------------  -----------------  -----------------
         N           -4.293096210000    -3.068374310000     5.305162310000    14.003074004430
         N           -2.158473710000    -2.926272960000     1.720374480000    14.003074004430
         H           -0.025455870000    -6.359035750000     2.220464520000     1.007825032230
         H           -2.685669680000    -6.532602410000     6.614459540000     1.007825032230
         H           -4.743884230000    -0.006090060000     2.756159680000     1.007825032230
         H           -1.410455400000    -2.247231470000     0.000000000000     1.007825032230
         C           -1.437379910000    -5.075048480000     2.940658910000    12.000000000000
         C           -2.769007820000    -5.146099160000     5.135228800000    12.000000000000
         C           -3.859550360000    -1.777281980000     3.210934110000    12.000000000000
      Gh(N)         -10.093710150000   -16.328460990000   -20.877545400000    14.003074004430
      Gh(N)         -12.228332660000   -16.470562350000   -17.292757570000    14.003074004430
      Gh(H)         -14.361350500000   -13.037799550000   -17.792847610000     1.007825032230
      Gh(H)         -11.701136690000   -12.864232890000   -22.186842630000     1.007825032230
      Gh(H)          -9.642922140000   -19.390745240000   -18.328542760000     1.007825032230
      Gh(H)         -12.976350960000   -17.149603830000   -15.572383090000     1.007825032230
      Gh(C)         -12.949426450000   -14.321786820000   -18.513042000000    12.000000000000
      Gh(C)         -11.617798550000   -14.250736140000   -20.707611890000    12.000000000000
      Gh(C)         -10.527256010000   -17.619553320000   -18.783317200000    12.000000000000

  Running in c1 symmetry.

  Rotational constants: A =      0.02029  B =      0.00117  C =      0.00112 [cm^-1]
  Rotational constants: A =    608.18530  B =     35.04291  C =     33.54450 [MHz]
  Nuclear repulsion =  164.086695994184396

  Charge       = 0
  Multiplicity = 1
  Electrons    = 36
  Nalpha       = 18
  Nbeta        = 18

  ==> Algorithm <==

  SCF Algorithm Type is DF.
  DIIS enabled.
  MOM disabled.
  Fractional occupation disabled.
  Guess Type is SAD.
  Energy threshold   = 1.00e-10
  Density threshold  = 1.00e-10
  Integral threshold = 1.00e-12

  ==> Primary Basis <==

  Basis Set: AUG-CC-PVDZ
    Blend: AUG-CC-PVDZ
    Number of shells: 130
    Number of basis functions: 302
    Number of Cartesian functions: 322
    Spherical Harmonics?: true
    Max angular momentum: 2

   => Loading Basis Set <=

    Name: (AUG-CC-PVDZ AUX)
    Role: JKFIT
    Keyword: DF_BASIS_SCF
    atoms 1-2, 10-11 entry N          line   212 file /theoryfs2/ds/csargent/miniconda3/envs/cle/share/psi4/basis/aug-cc-pvdz-jkfit.gbs 
    atoms 3-6, 12-15 entry H          line    70 file /theoryfs2/ds/csargent/miniconda3/envs/cle/share/psi4/basis/aug-cc-pvdz-jkfit.gbs 
    atoms 7-9, 16-18 entry C          line   154 file /theoryfs2/ds/csargent/miniconda3/envs/cle/share/psi4/basis/aug-cc-pvdz-jkfit.gbs 

  ==> Integral Setup <==

  ==> DiskDFJK: Density-Fitted J/K Matrices <==

    J tasked:                  Yes
    K tasked:                  Yes
    wK tasked:                  No
    OpenMP threads:              6
    Integrals threads:           6
    Memory [MiB]:             5006
    Algorithm:                Core
    Integral Cache:           LOAD
    Schwarz Cutoff:          1E-12
    Fitting Condition:       1E-10

   => Auxiliary Basis Set <=

  Basis Set: (AUG-CC-PVDZ AUX)
    Blend: AUG-CC-PVDZ-JKFIT
    Number of shells: 376
    Number of basis functions: 1116
    Number of Cartesian functions: 1290
    Spherical Harmonics?: true
    Max angular momentum: 3

  Minimum eigenvalue in the overlap matrix is 2.1834630625E-05.
  Reciprocal condition number of the overlap matrix is 1.8392420602E-06.
    Using symmetric orthogonalization.

  ==> Pre-Iterations <==

  SCF Guess: Superposition of Atomic Densities via on-the-fly atomic UHF (no occupation information).

   -------------------------
    Irrep   Nso     Nmo    
   -------------------------
     A        302     302 
   -------------------------
    Total     302     302
   -------------------------

  ==> Iterations <==

                           Total Energy        Delta E     RMS |[F,P]|

   @DF-RHF iter SAD:  -224.55857169587341   -2.24559e+02   0.00000e+00 
   @DF-RHF iter   1:  -224.69806465233532   -1.39493e-01   1.63067e-03 DIIS
   @DF-RHF iter   2:  -224.80532027058982   -1.07256e-01   9.27384e-04 DIIS
   @DF-RHF iter   3:  -224.84168817439104   -3.63679e-02   1.74019e-04 DIIS
   @DF-RHF iter   4:  -224.84337342645350   -1.68525e-03   7.98972e-05 DIIS
   @DF-RHF iter   5:  -224.84367500716263   -3.01581e-04   1.26452e-05 DIIS
   @DF-RHF iter   6:  -224.84369234419535   -1.73370e-05   5.61871e-06 DIIS
   @DF-RHF iter   7:  -224.84369543226481   -3.08807e-06   2.19503e-06 DIIS
   @DF-RHF iter   8:  -224.84369616418343   -7.31919e-07   7.77587e-07 DIIS
   @DF-RHF iter   9:  -224.84369627497787   -1.10794e-07   1.87961e-07 DIIS
   @DF-RHF iter  10:  -224.84369628051314   -5.53527e-09   7.33125e-08 DIIS
   @DF-RHF iter  11:  -224.84369628133939   -8.26248e-10   3.26918e-08 DIIS
   @DF-RHF iter  12:  -224.84369628149153   -1.52141e-10   9.70884e-09 DIIS
   @DF-RHF iter  13:  -224.84369628150512   -1.35856e-11   3.58840e-09 DIIS
   @DF-RHF iter  14:  -224.84369628150631   -1.19371e-12   1.58275e-09 DIIS
   @DF-RHF iter  15:  -224.84369628150637   -5.68434e-14   5.27556e-10 DIIS
   @DF-RHF iter  16:  -224.84369628150657   -1.98952e-13   2.34517e-10 DIIS
   @DF-RHF iter  17:  -224.84369628150685   -2.84217e-13   4.71139e-11 DIIS
  Energy and wave function converged.


  ==> Post-Iterations <==

    Orbital Energies [Eh]
    ---------------------

    Doubly Occupied:                                                      

       1A    -15.637071     2A    -15.551216     3A    -11.300916  
       4A    -11.263160     5A    -11.245653     6A     -1.352867  
       7A     -1.169098     8A     -1.012098     9A     -0.824390  
      10A     -0.803731    11A     -0.760666    12A     -0.610096  
      13A     -0.603958    14A     -0.601922    15A     -0.570942  
      16A     -0.435483    17A     -0.400464    18A     -0.320685  

    Virtual:                                                              

      19A      0.021855    20A      0.025390    21A      0.039419  
      22A      0.041580    23A      0.043003    24A      0.049997  
      25A      0.061863    26A      0.067230    27A      0.075695  
      28A      0.085470    29A      0.089093    30A      0.096948  
      31A      0.101397    32A      0.120829    33A      0.123851  
      34A      0.124190    35A      0.125573    36A      0.126123  
      37A      0.126620    38A      0.133215    39A      0.133576  
      40A      0.133783    41A      0.137511    42A      0.140942  
      43A      0.155932    44A      0.156564    45A      0.158710  
      46A      0.171989    47A      0.178189    48A      0.187224  
      49A      0.191633    50A      0.207058    51A      0.208628  
      52A      0.211559    53A      0.211702    54A      0.219543  
      55A      0.220268    56A      0.221809    57A      0.232308  
      58A      0.232484    59A      0.241415    60A      0.261606  
      61A      0.267803    62A      0.271517    63A      0.277912  
      64A      0.298667    65A      0.301746    66A      0.305746  
      67A      0.314441    68A      0.318528    69A      0.338197  
      70A      0.359432    71A      0.361491    72A      0.370742  
      73A      0.374802    74A      0.379804    75A      0.388294  
      76A      0.392709    77A      0.397102    78A      0.417032  
      79A      0.426704    80A      0.429001    81A      0.434506  
      82A      0.439608    83A      0.448388    84A      0.451479  
      85A      0.452060    86A      0.466350    87A      0.467486  
      88A      0.480335    89A      0.481229    90A      0.486284  
      91A      0.488151    92A      0.516642    93A      0.519955  
      94A      0.535321    95A      0.537594    96A      0.542446  
      97A      0.551710    98A      0.555208    99A      0.556387  
     100A      0.568280   101A      0.576474   102A      0.578763  
     103A      0.586872   104A      0.594249   105A      0.598939  
     106A      0.605701   107A      0.611367   108A      0.616081  
     109A      0.617693   110A      0.636538   111A      0.639047  
     112A      0.652504   113A      0.669282   114A      0.671337  
     115A      0.676997   116A      0.678186   117A      0.683089  
     118A      0.683875   119A      0.710488   120A      0.714698  
     121A      0.725759   122A      0.735382   123A      0.741238  
     124A      0.755474   125A      0.762698   126A      0.767400  
     127A      0.790929   128A      0.793606   129A      0.797550  
     130A      0.809741   131A      0.809777   132A      0.811827  
     133A      0.822558   134A      0.835856   135A      0.858921  
     136A      0.860400   137A      0.871425   138A      0.885761  
     139A      0.885881   140A      0.889823   141A      0.909043  
     142A      0.918969   143A      0.926206   144A      0.954351  
     145A      0.968071   146A      0.976964   147A      0.991114  
     148A      0.998361   149A      1.010706   150A      1.014757  
     151A      1.017404   152A      1.030676   153A      1.058327  
     154A      1.077353   155A      1.077948   156A      1.084552  
     157A      1.102982   158A      1.115341   159A      1.126983  
     160A      1.131835   161A      1.140497   162A      1.149565  
     163A      1.167170   164A      1.170197   165A      1.173383  
     166A      1.196883   167A      1.209926   168A      1.217446  
     169A      1.260721   170A      1.277350   171A      1.289981  
     172A      1.296310   173A      1.302539   174A      1.311891  
     175A      1.317459   176A      1.346914   177A      1.383476  
     178A      1.385029   179A      1.398146   180A      1.451144  
     181A      1.494282   182A      1.503289   183A      1.515188  
     184A      1.518410   185A      1.540701   186A      1.574127  
     187A      1.574285   188A      1.596381   189A      1.652159  
     190A      1.660290   191A      1.671506   192A      1.705286  
     193A      1.724477   194A      1.782643   195A      1.799068  
     196A      1.807063   197A      1.864951   198A      1.881478  
     199A      1.924391   200A      1.964988   201A      2.022006  
     202A      2.025429   203A      2.039022   204A      2.072981  
     205A      2.100431   206A      2.107055   207A      2.118828  
     208A      2.126759   209A      2.130732   210A      2.135965  
     211A      2.148846   212A      2.168670   213A      2.178815  
     214A      2.184436   215A      2.229155   216A      2.252123  
     217A      2.267082   218A      2.275963   219A      2.300924  
     220A      2.308033   221A      2.326579   222A      2.332072  
     223A      2.376264   224A      2.405177   225A      2.412802  
     226A      2.417758   227A      2.455175   228A      2.470286  
     229A      2.493391   230A      2.496920   231A      2.514026  
     232A      2.525327   233A      2.544884   234A      2.545346  
     235A      2.576331   236A      2.585743   237A      2.599306  
     238A      2.633765   239A      2.695746   240A      2.734093  
     241A      2.747025   242A      2.767090   243A      2.789878  
     244A      2.794149   245A      2.803444   246A      2.828313  
     247A      2.837641   248A      2.867213   249A      2.895294  
     250A      2.932767   251A      2.948959   252A      2.952740  
     253A      2.980862   254A      3.043065   255A      3.051201  
     256A      3.069910   257A      3.075739   258A      3.131490  
     259A      3.159190   260A      3.182465   261A      3.199163  
     262A      3.208795   263A      3.212913   264A      3.334816  
     265A      3.340407   266A      3.354325   267A      3.354572  
     268A      3.362432   269A      3.458254   270A      3.493989  
     271A      3.518552   272A      3.569218   273A      3.608445  
     274A      3.706829   275A      3.726301   276A      3.768294  
     277A      3.777970   278A      3.797816   279A      3.857509  
     280A      3.870302   281A      4.003457   282A      4.109023  
     283A      4.212373   284A      4.636299   285A      4.638387  
     286A      4.695523   287A      4.771398   288A      4.879679  
     289A      5.020996   290A      5.254247   291A      5.372760  
     292A      5.494388   293A      5.609953   294A      5.715902  
     295A      5.883518   296A      6.089344   297A      6.197754  
     298A     18.255023   299A     18.589746   300A     19.299985  
     301A     25.311477   302A     25.452918  

    Final Occupation by Irrep:
              A 
    DOCC [    18 ]

  @DF-RHF Final Energy:  -224.84369628150685

   => Energetics <=

    Nuclear Repulsion Energy =            164.0866959941843959
    One-Electron Energy =                -628.9319563211843160
    Two-Electron Energy =                 240.0015640454930406
    Total Energy =                       -224.8436962815068512

Computation Completed


Properties will be evaluated at   0.000000,   0.000000,   0.000000 [a0]

Properties computed using the SCF density matrix

  Nuclear Dipole Moment: [e a0]
     X:  -102.4221      Y:  -129.0981      Z:   128.4908

  Electronic Dipole Moment: [e a0]
     X:   103.2259      Y:   129.2613      Z:  -129.8232

  Dipole Moment: [e a0]
     X:     0.8038      Y:     0.1633      Z:    -1.3324     Total:     1.5646

  Dipole Moment: [D]
     X:     2.0431      Y:     0.4150      Z:    -3.3867     Total:     3.9769


*** tstop() called on ds1 at Tue Sep 14 16:18:14 2021
Module time:
	user time   =      17.49 seconds =       0.29 minutes
	system time =       0.43 seconds =       0.01 minutes
	total time  =          4 seconds =       0.07 minutes
Total time:
	user time   =      42.16 seconds =       0.70 minutes
	system time =       0.99 seconds =       0.02 minutes
	total time  =          9 seconds =       0.15 minutes

  //>>>>>>>>>>>>>>>>>>>>>>>>>>>>>>>>>>>//
  //            Monomer B HF           //
  //<<<<<<<<<<<<<<<<<<<<<<<<<<<<<<<<<<<//


*** tstart() called on ds1
*** at Tue Sep 14 16:18:14 2021

   => Loading Basis Set <=

    Name: AUG-CC-PVDZ
    Role: ORBITAL
    Keyword: BASIS
    atoms 1-2, 10-11 entry N          line   218 file /theoryfs2/ds/csargent/miniconda3/envs/cle/share/psi4/basis/aug-cc-pvdz.gbs 
    atoms 3-6, 12-15 entry H          line    40 file /theoryfs2/ds/csargent/miniconda3/envs/cle/share/psi4/basis/aug-cc-pvdz.gbs 
    atoms 7-9, 16-18 entry C          line   182 file /theoryfs2/ds/csargent/miniconda3/envs/cle/share/psi4/basis/aug-cc-pvdz.gbs 


         ---------------------------------------------------------
                                   SCF
               by Justin Turney, Rob Parrish, Andy Simmonett
                          and Daniel G. A. Smith
                              RHF Reference
                        6 Threads,   6675 MiB Core
         ---------------------------------------------------------

  ==> Geometry <==

    Molecular point group: c1
    Full point group: C1

    Geometry (in Bohr), charge = 0, multiplicity = 1:

       Center              X                  Y                   Z               Mass       
    ------------   -----------------  -----------------  -----------------  -----------------
      Gh(N)          -4.293096210000    -3.068374310000     5.305162310000    14.003074004430
      Gh(N)          -2.158473710000    -2.926272960000     1.720374480000    14.003074004430
      Gh(H)          -0.025455870000    -6.359035750000     2.220464520000     1.007825032230
      Gh(H)          -2.685669680000    -6.532602410000     6.614459540000     1.007825032230
      Gh(H)          -4.743884230000    -0.006090060000     2.756159680000     1.007825032230
      Gh(H)          -1.410455400000    -2.247231470000     0.000000000000     1.007825032230
      Gh(C)          -1.437379910000    -5.075048480000     2.940658910000    12.000000000000
      Gh(C)          -2.769007820000    -5.146099160000     5.135228800000    12.000000000000
      Gh(C)          -3.859550360000    -1.777281980000     3.210934110000    12.000000000000
         N          -10.093710150000   -16.328460990000   -20.877545400000    14.003074004430
         N          -12.228332660000   -16.470562350000   -17.292757570000    14.003074004430
         H          -14.361350500000   -13.037799550000   -17.792847610000     1.007825032230
         H          -11.701136690000   -12.864232890000   -22.186842630000     1.007825032230
         H           -9.642922140000   -19.390745240000   -18.328542760000     1.007825032230
         H          -12.976350960000   -17.149603830000   -15.572383090000     1.007825032230
         C          -12.949426450000   -14.321786820000   -18.513042000000    12.000000000000
         C          -11.617798550000   -14.250736140000   -20.707611890000    12.000000000000
         C          -10.527256010000   -17.619553320000   -18.783317200000    12.000000000000

  Running in c1 symmetry.

  Rotational constants: A =      0.02029  B =      0.00117  C =      0.00112 [cm^-1]
  Rotational constants: A =    608.18530  B =     35.04291  C =     33.54450 [MHz]
  Nuclear repulsion =  164.086695949815919

  Charge       = 0
  Multiplicity = 1
  Electrons    = 36
  Nalpha       = 18
  Nbeta        = 18

  ==> Algorithm <==

  SCF Algorithm Type is DF.
  DIIS enabled.
  MOM disabled.
  Fractional occupation disabled.
  Guess Type is SAD.
  Energy threshold   = 1.00e-10
  Density threshold  = 1.00e-10
  Integral threshold = 1.00e-12

  ==> Primary Basis <==

  Basis Set: AUG-CC-PVDZ
    Blend: AUG-CC-PVDZ
    Number of shells: 130
    Number of basis functions: 302
    Number of Cartesian functions: 322
    Spherical Harmonics?: true
    Max angular momentum: 2

   => Loading Basis Set <=

    Name: (AUG-CC-PVDZ AUX)
    Role: JKFIT
    Keyword: DF_BASIS_SCF
    atoms 1-2, 10-11 entry N          line   212 file /theoryfs2/ds/csargent/miniconda3/envs/cle/share/psi4/basis/aug-cc-pvdz-jkfit.gbs 
    atoms 3-6, 12-15 entry H          line    70 file /theoryfs2/ds/csargent/miniconda3/envs/cle/share/psi4/basis/aug-cc-pvdz-jkfit.gbs 
    atoms 7-9, 16-18 entry C          line   154 file /theoryfs2/ds/csargent/miniconda3/envs/cle/share/psi4/basis/aug-cc-pvdz-jkfit.gbs 

  ==> Integral Setup <==

  ==> DiskDFJK: Density-Fitted J/K Matrices <==

    J tasked:                  Yes
    K tasked:                  Yes
    wK tasked:                  No
    OpenMP threads:              6
    Integrals threads:           6
    Memory [MiB]:             5006
    Algorithm:                Core
    Integral Cache:           LOAD
    Schwarz Cutoff:          1E-12
    Fitting Condition:       1E-10

   => Auxiliary Basis Set <=

  Basis Set: (AUG-CC-PVDZ AUX)
    Blend: AUG-CC-PVDZ-JKFIT
    Number of shells: 376
    Number of basis functions: 1116
    Number of Cartesian functions: 1290
    Spherical Harmonics?: true
    Max angular momentum: 3

  Minimum eigenvalue in the overlap matrix is 2.1834630625E-05.
  Reciprocal condition number of the overlap matrix is 1.8392420602E-06.
    Using symmetric orthogonalization.

  ==> Pre-Iterations <==

  SCF Guess: Superposition of Atomic Densities via on-the-fly atomic UHF (no occupation information).

   -------------------------
    Irrep   Nso     Nmo    
   -------------------------
     A        302     302 
   -------------------------
    Total     302     302
   -------------------------

  ==> Iterations <==

                           Total Energy        Delta E     RMS |[F,P]|

   @DF-RHF iter SAD:  -224.55857169307555   -2.24559e+02   0.00000e+00 
   @DF-RHF iter   1:  -224.69806465347187   -1.39493e-01   1.63067e-03 DIIS
   @DF-RHF iter   2:  -224.80532027155161   -1.07256e-01   9.27384e-04 DIIS
   @DF-RHF iter   3:  -224.84168817514688   -3.63679e-02   1.74019e-04 DIIS
   @DF-RHF iter   4:  -224.84337342721042   -1.68525e-03   7.98972e-05 DIIS
   @DF-RHF iter   5:  -224.84367500792138   -3.01581e-04   1.26452e-05 DIIS
   @DF-RHF iter   6:  -224.84369234495449   -1.73370e-05   5.61871e-06 DIIS
   @DF-RHF iter   7:  -224.84369543302364   -3.08807e-06   2.19503e-06 DIIS
   @DF-RHF iter   8:  -224.84369616494223   -7.31919e-07   7.77587e-07 DIIS
   @DF-RHF iter   9:  -224.84369627573642   -1.10794e-07   1.87961e-07 DIIS
   @DF-RHF iter  10:  -224.84369628127237   -5.53595e-09   7.33125e-08 DIIS
   @DF-RHF iter  11:  -224.84369628209819   -8.25821e-10   3.26918e-08 DIIS
   @DF-RHF iter  12:  -224.84369628225008   -1.51886e-10   9.70884e-09 DIIS
   @DF-RHF iter  13:  -224.84369628226341   -1.33298e-11   3.58840e-09 DIIS
   @DF-RHF iter  14:  -224.84369628226486   -1.44951e-12   1.58275e-09 DIIS
   @DF-RHF iter  15:  -224.84369628226563   -7.67386e-13   5.27556e-10 DIIS
   @DF-RHF iter  16:  -224.84369628226551    1.13687e-13   2.34517e-10 DIIS
   @DF-RHF iter  17:  -224.84369628226563   -1.13687e-13   4.71138e-11 DIIS
  Energy and wave function converged.


  ==> Post-Iterations <==

    Orbital Energies [Eh]
    ---------------------

    Doubly Occupied:                                                      

       1A    -15.637071     2A    -15.551216     3A    -11.300916  
       4A    -11.263160     5A    -11.245653     6A     -1.352867  
       7A     -1.169098     8A     -1.012098     9A     -0.824390  
      10A     -0.803731    11A     -0.760666    12A     -0.610096  
      13A     -0.603958    14A     -0.601922    15A     -0.570942  
      16A     -0.435483    17A     -0.400464    18A     -0.320685  

    Virtual:                                                              

      19A      0.021855    20A      0.025390    21A      0.039419  
      22A      0.041580    23A      0.043003    24A      0.049997  
      25A      0.061863    26A      0.067230    27A      0.075695  
      28A      0.085470    29A      0.089093    30A      0.096948  
      31A      0.101397    32A      0.120829    33A      0.123851  
      34A      0.124190    35A      0.125573    36A      0.126123  
      37A      0.126620    38A      0.133215    39A      0.133576  
      40A      0.133783    41A      0.137511    42A      0.140942  
      43A      0.155932    44A      0.156564    45A      0.158710  
      46A      0.171989    47A      0.178189    48A      0.187224  
      49A      0.191633    50A      0.207058    51A      0.208628  
      52A      0.211559    53A      0.211702    54A      0.219543  
      55A      0.220268    56A      0.221809    57A      0.232308  
      58A      0.232484    59A      0.241415    60A      0.261606  
      61A      0.267803    62A      0.271517    63A      0.277912  
      64A      0.298667    65A      0.301746    66A      0.305746  
      67A      0.314441    68A      0.318528    69A      0.338197  
      70A      0.359432    71A      0.361491    72A      0.370742  
      73A      0.374802    74A      0.379804    75A      0.388294  
      76A      0.392709    77A      0.397102    78A      0.417032  
      79A      0.426704    80A      0.429001    81A      0.434506  
      82A      0.439608    83A      0.448388    84A      0.451479  
      85A      0.452060    86A      0.466350    87A      0.467486  
      88A      0.480335    89A      0.481229    90A      0.486284  
      91A      0.488151    92A      0.516642    93A      0.519955  
      94A      0.535321    95A      0.537594    96A      0.542446  
      97A      0.551710    98A      0.555208    99A      0.556387  
     100A      0.568280   101A      0.576474   102A      0.578763  
     103A      0.586872   104A      0.594249   105A      0.598939  
     106A      0.605701   107A      0.611367   108A      0.616081  
     109A      0.617693   110A      0.636538   111A      0.639047  
     112A      0.652504   113A      0.669282   114A      0.671337  
     115A      0.676997   116A      0.678186   117A      0.683089  
     118A      0.683875   119A      0.710488   120A      0.714698  
     121A      0.725759   122A      0.735382   123A      0.741238  
     124A      0.755474   125A      0.762698   126A      0.767400  
     127A      0.790929   128A      0.793606   129A      0.797550  
     130A      0.809741   131A      0.809777   132A      0.811827  
     133A      0.822558   134A      0.835856   135A      0.858921  
     136A      0.860400   137A      0.871425   138A      0.885761  
     139A      0.885881   140A      0.889823   141A      0.909043  
     142A      0.918969   143A      0.926206   144A      0.954351  
     145A      0.968071   146A      0.976964   147A      0.991114  
     148A      0.998361   149A      1.010706   150A      1.014757  
     151A      1.017404   152A      1.030676   153A      1.058327  
     154A      1.077353   155A      1.077948   156A      1.084552  
     157A      1.102982   158A      1.115341   159A      1.126983  
     160A      1.131835   161A      1.140497   162A      1.149565  
     163A      1.167170   164A      1.170197   165A      1.173383  
     166A      1.196883   167A      1.209926   168A      1.217446  
     169A      1.260721   170A      1.277350   171A      1.289981  
     172A      1.296310   173A      1.302539   174A      1.311891  
     175A      1.317459   176A      1.346914   177A      1.383476  
     178A      1.385029   179A      1.398146   180A      1.451144  
     181A      1.494282   182A      1.503289   183A      1.515188  
     184A      1.518410   185A      1.540701   186A      1.574127  
     187A      1.574285   188A      1.596381   189A      1.652159  
     190A      1.660290   191A      1.671506   192A      1.705286  
     193A      1.724477   194A      1.782643   195A      1.799068  
     196A      1.807063   197A      1.864951   198A      1.881478  
     199A      1.924391   200A      1.964988   201A      2.022006  
     202A      2.025429   203A      2.039022   204A      2.072981  
     205A      2.100431   206A      2.107055   207A      2.118828  
     208A      2.126759   209A      2.130732   210A      2.135965  
     211A      2.148846   212A      2.168670   213A      2.178815  
     214A      2.184436   215A      2.229155   216A      2.252123  
     217A      2.267082   218A      2.275963   219A      2.300924  
     220A      2.308033   221A      2.326579   222A      2.332072  
     223A      2.376264   224A      2.405177   225A      2.412802  
     226A      2.417758   227A      2.455175   228A      2.470286  
     229A      2.493391   230A      2.496920   231A      2.514026  
     232A      2.525327   233A      2.544884   234A      2.545346  
     235A      2.576331   236A      2.585743   237A      2.599306  
     238A      2.633765   239A      2.695746   240A      2.734093  
     241A      2.747025   242A      2.767090   243A      2.789878  
     244A      2.794149   245A      2.803444   246A      2.828313  
     247A      2.837641   248A      2.867213   249A      2.895294  
     250A      2.932767   251A      2.948959   252A      2.952740  
     253A      2.980862   254A      3.043065   255A      3.051201  
     256A      3.069910   257A      3.075739   258A      3.131490  
     259A      3.159190   260A      3.182465   261A      3.199163  
     262A      3.208795   263A      3.212913   264A      3.334816  
     265A      3.340407   266A      3.354325   267A      3.354572  
     268A      3.362432   269A      3.458254   270A      3.493989  
     271A      3.518552   272A      3.569218   273A      3.608445  
     274A      3.706829   275A      3.726301   276A      3.768294  
     277A      3.777970   278A      3.797816   279A      3.857509  
     280A      3.870302   281A      4.003457   282A      4.109023  
     283A      4.212373   284A      4.636299   285A      4.638387  
     286A      4.695523   287A      4.771398   288A      4.879679  
     289A      5.020996   290A      5.254247   291A      5.372760  
     292A      5.494388   293A      5.609953   294A      5.715902  
     295A      5.883518   296A      6.089344   297A      6.197754  
     298A     18.255023   299A     18.589746   300A     19.299985  
     301A     25.311477   302A     25.452918  

    Final Occupation by Irrep:
              A 
    DOCC [    18 ]

  @DF-RHF Final Energy:  -224.84369628226563

   => Energetics <=

    Nuclear Repulsion Energy =            164.0866959498159190
    One-Electron Energy =                -628.9319562323187256
    Two-Electron Energy =                 240.0015640002371811
    Total Energy =                       -224.8436962822656255

Computation Completed


Properties will be evaluated at   0.000000,   0.000000,   0.000000 [a0]

Properties computed using the SCF density matrix

  Nuclear Dipole Moment: [e a0]
     X:  -415.5029      Y:  -569.1880      Z:  -689.0966

  Electronic Dipole Moment: [e a0]
     X:   414.6991      Y:   569.0247      Z:   690.4290

  Dipole Moment: [e a0]
     X:    -0.8038      Y:    -0.1633      Z:     1.3324     Total:     1.5646

  Dipole Moment: [D]
     X:    -2.0431      Y:    -0.4150      Z:     3.3867     Total:     3.9769


*** tstop() called on ds1 at Tue Sep 14 16:18:18 2021
Module time:
	user time   =      17.35 seconds =       0.29 minutes
	system time =       0.32 seconds =       0.01 minutes
	total time  =          4 seconds =       0.07 minutes
Total time:
	user time   =      59.70 seconds =       0.99 minutes
	system time =       1.32 seconds =       0.02 minutes
	total time  =         13 seconds =       0.22 minutes
  Constructing Basis Sets for SAPT...

   => Loading Basis Set <=

    Name: (AUG-CC-PVDZ AUX)
    Role: RIFIT
    Keyword: DF_BASIS_SAPT
    atoms 1-2, 10-11 entry N          line   158 file /theoryfs2/ds/csargent/miniconda3/envs/cle/share/psi4/basis/aug-cc-pvdz-ri.gbs 
    atoms 3-6, 12-15 entry H          line    30 file /theoryfs2/ds/csargent/miniconda3/envs/cle/share/psi4/basis/aug-cc-pvdz-ri.gbs 
    atoms 7-9, 16-18 entry C          line   112 file /theoryfs2/ds/csargent/miniconda3/envs/cle/share/psi4/basis/aug-cc-pvdz-ri.gbs 


  //>>>>>>>>>>>>>>>>>>>>>>>>>>>>>>>>>>>//
  //               SAPT0               //
  //<<<<<<<<<<<<<<<<<<<<<<<<<<<<<<<<<<<//


*** tstart() called on ds1
*** at Tue Sep 14 16:18:18 2021

        SAPT0  
    Ed Hohenstein
     6 June 2009

      Orbital Information
  --------------------------
    NSO        =       302
    NMO        =       302
    NRI        =       904
    NOCC A     =        18
    NOCC B     =        18
    FOCC A     =         5
    FOCC B     =         5
    NVIR A     =       284
    NVIR B     =       284

    Elst10,r            =    -0.000082538536 [Eh]
    Exch10              =     0.000000000001 [Eh]
    Exch10 (S^2)        =     0.000000000001 [Eh]

    Iter     Energy [mEh]          dE [mEh]         Residual      Time [s]
       1      -0.00016198       0.000161976       0.118995034             0
       2      -0.00014872      -0.000013260       0.030890408             0
       3      -0.00015773       0.000009019       0.015602136             0
       4      -0.00016225       0.000004515       0.002539398             1
       5      -0.00016189      -0.000000358       0.001067377             1
       6      -0.00016178      -0.000000108       0.000279727             1
       7      -0.00016180       0.000000019       0.000108128             1
       8      -0.00016181       0.000000005       0.000041608             1
       9      -0.00016181      -0.000000001       0.000017859             1
      10      -0.00016181      -0.000000001       0.000005207             1
      11      -0.00016181       0.000000000       0.000002022             1
      12      -0.00016181       0.000000000       0.000000488             2

    CHF Iterations converged


    Iter     Energy [mEh]          dE [mEh]         Residual      Time [s]
       1      -0.00016198       0.000161976       0.118995034             0
       2      -0.00014872      -0.000013260       0.030890408             0
       3      -0.00015773       0.000009019       0.015602136             0
       4      -0.00016225       0.000004515       0.002539398             0
       5      -0.00016189      -0.000000358       0.001067377             0
       6      -0.00016178      -0.000000108       0.000279727             0
       7      -0.00016180       0.000000019       0.000108128             0
       8      -0.00016181       0.000000005       0.000041608             1
       9      -0.00016181      -0.000000001       0.000017859             1
      10      -0.00016181      -0.000000001       0.000005207             1
      11      -0.00016181       0.000000000       0.000002022             1
      12      -0.00016181       0.000000000       0.000000488             1

    CHF Iterations converged

    Ind20,r (A<-B)      =    -0.000000161806 [Eh]
    Ind20,r (B<-A)      =    -0.000000161806 [Eh]
    Ind20,r             =    -0.000000323613 [Eh]
    Exch-Ind20,r (A<-B) =     0.000000000001 [Eh]
    Exch-Ind20,r (B<-A) =     0.000000000001 [Eh]
    Exch-Ind20,r        =     0.000000000001 [Eh]
    Disp20              =    -0.000002689609 [Eh]
    Disp20 (SS)         =    -0.000001344805 [Eh]
    Disp20 (OS)         =    -0.000001344805 [Eh]
    Exch-Disp20         =     0.000000000000 [Eh]
    Exch-Disp20 (SS)    =     0.000000000000 [Eh]
    Exch-Disp20 (OS)    =     0.000000000000 [Eh]

    SAPT Results 
  --------------------------------------------------------------------------------------------------------
    Electrostatics                 -0.08253854 [mEh]      -0.05179371 [kcal/mol]      -0.21670490 [kJ/mol]
      Elst10,r                     -0.08253854 [mEh]      -0.05179371 [kcal/mol]      -0.21670490 [kJ/mol]

    Exchange                        0.00000000 [mEh]       0.00000000 [kcal/mol]       0.00000000 [kJ/mol]
      Exch10                        0.00000000 [mEh]       0.00000000 [kcal/mol]       0.00000000 [kJ/mol]
      Exch10(S^2)                   0.00000000 [mEh]       0.00000000 [kcal/mol]       0.00000000 [kJ/mol]

    Induction                      -0.00033728 [mEh]      -0.00021165 [kcal/mol]      -0.00088554 [kJ/mol]
      Ind20,r                      -0.00032361 [mEh]      -0.00020307 [kcal/mol]      -0.00084965 [kJ/mol]
      Exch-Ind20,r                  0.00000000 [mEh]       0.00000000 [kcal/mol]       0.00000000 [kJ/mol]
      delta HF,r (2)               -0.00001367 [mEh]      -0.00000858 [kcal/mol]      -0.00003589 [kJ/mol]

    Dispersion                     -0.00268961 [mEh]      -0.00168776 [kcal/mol]      -0.00706157 [kJ/mol]
      Disp20                       -0.00268961 [mEh]      -0.00168776 [kcal/mol]      -0.00706157 [kJ/mol]
      Exch-Disp20                   0.00000000 [mEh]       0.00000000 [kcal/mol]       0.00000000 [kJ/mol]
      Disp20 (SS)                  -0.00134480 [mEh]      -0.00084388 [kcal/mol]      -0.00353078 [kJ/mol]
      Disp20 (OS)                  -0.00134480 [mEh]      -0.00084388 [kcal/mol]      -0.00353078 [kJ/mol]
      Exch-Disp20 (SS)              0.00000000 [mEh]       0.00000000 [kcal/mol]       0.00000000 [kJ/mol]
      Exch-Disp20 (OS)              0.00000000 [mEh]       0.00000000 [kcal/mol]       0.00000000 [kJ/mol]

  Total HF                         -0.08287582 [mEh]      -0.05200536 [kcal/mol]      -0.21759043 [kJ/mol]
  Total SAPT0                      -0.08556543 [mEh]      -0.05369312 [kcal/mol]      -0.22465200 [kJ/mol]

  Special recipe for scaled SAPT0 (see Manual):
    Electrostatics sSAPT0          -0.08253854 [mEh]      -0.05179371 [kcal/mol]      -0.21670490 [kJ/mol]
    Exchange sSAPT0                 0.00000000 [mEh]       0.00000000 [kcal/mol]       0.00000000 [kJ/mol]
    Induction sSAPT0               -0.00033728 [mEh]      -0.00021165 [kcal/mol]      -0.00088554 [kJ/mol]
    Dispersion sSAPT0              -0.00268961 [mEh]      -0.00168776 [kcal/mol]      -0.00706157 [kJ/mol]
  Total sSAPT0                     -0.08556543 [mEh]      -0.05369312 [kcal/mol]      -0.22465200 [kJ/mol]
  --------------------------------------------------------------------------------------------------------

*** tstop() called on ds1 at Tue Sep 14 16:18:27 2021
Module time:
	user time   =      45.32 seconds =       0.76 minutes
	system time =       3.91 seconds =       0.07 minutes
	total time  =          9 seconds =       0.15 minutes
Total time:
	user time   =     106.04 seconds =       1.77 minutes
	system time =       5.27 seconds =       0.09 minutes
	total time  =         22 seconds =       0.37 minutes


Warning! sapt0 does not have an associated derived wavefunction.The returned wavefunction is the dimer SCF wavefunction.


    Psi4 stopped on: Tuesday, 14 September 2021 04:18PM
    Psi4 wall time for execution: 0:00:22.58

*** Psi4 exiting successfully. Buy a developer a beer!
