
    -----------------------------------------------------------------------
          Psi4: An Open-Source Ab Initio Electronic Structure Package
                               Psi4 1.4rc3

                         Git: Rev {HEAD} 080dba6


    D. G. A. Smith, L. A. Burns, A. C. Simmonett, R. M. Parrish,
    M. C. Schieber, R. Galvelis, P. Kraus, H. Kruse, R. Di Remigio,
    A. Alenaizan, A. M. James, S. Lehtola, J. P. Misiewicz, M. Scheurer,
    R. A. Shaw, J. B. Schriber, Y. Xie, Z. L. Glick, D. A. Sirianni,
    J. S. O'Brien, J. M. Waldrop, A. Kumar, E. G. Hohenstein,
    B. P. Pritchard, B. R. Brooks, H. F. Schaefer III, A. Yu. Sokolov,
    K. Patkowski, A. E. DePrince III, U. Bozkaya, R. A. King,
    F. A. Evangelista, J. M. Turney, T. D. Crawford, C. D. Sherrill,
    J. Chem. Phys. 152(18) 184108 (2020). https://doi.org/10.1063/5.0006002

                            Additional Code Authors
    E. T. Seidl, C. L. Janssen, E. F. Valeev, M. L. Leininger,
    J. F. Gonthier, R. M. Richard, H. R. McAlexander, M. Saitow, X. Wang,
    P. Verma, and M. H. Lechner

             Previous Authors, Complete List of Code Contributors,
                       and Citations for Specific Modules
    https://github.com/psi4/psi4/blob/master/codemeta.json
    https://github.com/psi4/psi4/graphs/contributors
    http://psicode.org/psi4manual/master/introduction.html#citing-psifour

    -----------------------------------------------------------------------


    Psi4 started on: Tuesday, 14 September 2021 04:53PM

    Process ID: 1377
    Host:       ds1
    PSIDATADIR: /theoryfs2/ds/csargent/miniconda3/envs/cle/share/psi4
    Memory:     500.0 MiB
    Threads:    6

  ==> Input File <==

--------------------------------------------------------------------------
# PSI4 file produced by CrystaLattE

# Generated from:               imidazole.xyz
# Psithon input for N-mer:      2mer-0+442
# Number of atoms per monomer:  [9, 9]
# Number of replicas:           1
# COM priority:                 1.256768127067e-05
# Minimum COM separations:      22.761
# Separation priority:          2.224297897278e-05
# Minimum monomer separations:  18.816
# Cutoff priority:              6.255431437619e-07
# Nuclear repulsion energy:     358.3346176436353

memory 7 GB

molecule Dimer_0_442 {
  N           -4.29309621      -3.06837431       5.30516231
  N           -2.15847371      -2.92627296       1.72037448
  H           -0.02545587      -6.35903575       2.22046452
  H           -2.68566968      -6.53260241       6.61445954
  H           -4.74388423      -0.00609006       2.75615968
  H           -1.41045540      -2.24723147       0.00000000
  C           -1.43737991      -5.07504848       2.94065891
  C           -2.76900782      -5.14609916       5.13522880
  C           -3.85955036      -1.77728198       3.21093411
--
  N          -24.42199158      24.27192687     -20.87754540
  N          -26.55661408      24.12982552     -17.29275757
  H          -28.68963193      27.56258831     -17.79284761
  H          -26.02941811      27.73615497     -22.18684263
  H          -23.97120357      21.20964262     -18.32854276
  H          -27.30463239      23.45078403     -15.57238309
  C          -27.27770788      26.27860104     -18.51304200
  C          -25.94607997      26.34965172     -20.70761189
  C          -24.85553744      22.98083454     -18.78331720
units = au
no_com
no_reorient
}

set {
  e_convergence 10
  d_convergence 10
  scf_type df
  mp2_type df
  cc_type df
  freeze_core true
}

energy('sapt0/aug-cc-pvdz')

--------------------------------------------------------------------------

  Memory set to   6.519 GiB by Python driver.

Scratch directory: /scratch/csargent/psi4.31446.79897/

Scratch directory: /scratch/csargent/psi4.31446.79897/

  //>>>>>>>>>>>>>>>>>>>>>>>>>>>>>>>>>>>//
  //              Dimer HF             //
  //<<<<<<<<<<<<<<<<<<<<<<<<<<<<<<<<<<<//


*** tstart() called on ds1
*** at Tue Sep 14 16:53:34 2021

   => Loading Basis Set <=

    Name: AUG-CC-PVDZ
    Role: ORBITAL
    Keyword: BASIS
    atoms 1-2, 10-11 entry N          line   218 file /theoryfs2/ds/csargent/miniconda3/envs/cle/share/psi4/basis/aug-cc-pvdz.gbs
    atoms 3-6, 12-15 entry H          line    40 file /theoryfs2/ds/csargent/miniconda3/envs/cle/share/psi4/basis/aug-cc-pvdz.gbs
    atoms 7-9, 16-18 entry C          line   182 file /theoryfs2/ds/csargent/miniconda3/envs/cle/share/psi4/basis/aug-cc-pvdz.gbs


         ---------------------------------------------------------
                                   SCF
               by Justin Turney, Rob Parrish, Andy Simmonett
                          and Daniel G. A. Smith
                              RHF Reference
                        6 Threads,   6675 MiB Core
         ---------------------------------------------------------

  ==> Geometry <==

    Molecular point group: c1
    Full point group: C1

    Geometry (in Bohr), charge = 0, multiplicity = 1:

       Center              X                  Y                   Z               Mass
    ------------   -----------------  -----------------  -----------------  -----------------
         N           -4.293096210000    -3.068374310000     5.305162310000    14.003074004430
         N           -2.158473710000    -2.926272960000     1.720374480000    14.003074004430
         H           -0.025455870000    -6.359035750000     2.220464520000     1.007825032230
         H           -2.685669680000    -6.532602410000     6.614459540000     1.007825032230
         H           -4.743884230000    -0.006090060000     2.756159680000     1.007825032230
         H           -1.410455400000    -2.247231470000     0.000000000000     1.007825032230
         C           -1.437379910000    -5.075048480000     2.940658910000    12.000000000000
         C           -2.769007820000    -5.146099160000     5.135228800000    12.000000000000
         C           -3.859550360000    -1.777281980000     3.210934110000    12.000000000000
         N          -24.421991580000    24.271926870000   -20.877545400000    14.003074004430
         N          -26.556614080000    24.129825520000   -17.292757570000    14.003074004430
         H          -28.689631930000    27.562588310000   -17.792847610000     1.007825032230
         H          -26.029418110000    27.736154970000   -22.186842630000     1.007825032230
         H          -23.971203570000    21.209642620000   -18.328542760000     1.007825032230
         H          -27.304632390000    23.450784030000   -15.572383090000     1.007825032230
         C          -27.277707880000    26.278601040000   -18.513042000000    12.000000000000
         C          -25.946079970000    26.349651720000   -20.707611890000    12.000000000000
         C          -24.855537440000    22.980834540000   -18.783317200000    12.000000000000

  Running in c1 symmetry.

  Rotational constants: A =      0.02448  B =      0.00053  C =      0.00052 [cm^-1]
  Rotational constants: A =    733.91453  B =     15.97563  C =     15.67741 [MHz]
  Nuclear repulsion =  358.334617816801028

  Charge       = 0
  Multiplicity = 1
  Electrons    = 72
  Nalpha       = 36
  Nbeta        = 36

  ==> Algorithm <==

  SCF Algorithm Type is DF.
  DIIS enabled.
  MOM disabled.
  Fractional occupation disabled.
  Guess Type is SAD.
  Energy threshold   = 1.00e-10
  Density threshold  = 1.00e-10
  Integral threshold = 1.00e-12

  ==> Primary Basis <==

  Basis Set: AUG-CC-PVDZ
    Blend: AUG-CC-PVDZ
    Number of shells: 130
    Number of basis functions: 302
    Number of Cartesian functions: 322
    Spherical Harmonics?: true
    Max angular momentum: 2

   => Loading Basis Set <=

    Name: (AUG-CC-PVDZ AUX)
    Role: JKFIT
    Keyword: DF_BASIS_SCF
    atoms 1-2, 10-11 entry N          line   212 file /theoryfs2/ds/csargent/miniconda3/envs/cle/share/psi4/basis/aug-cc-pvdz-jkfit.gbs
    atoms 3-6, 12-15 entry H          line    70 file /theoryfs2/ds/csargent/miniconda3/envs/cle/share/psi4/basis/aug-cc-pvdz-jkfit.gbs
    atoms 7-9, 16-18 entry C          line   154 file /theoryfs2/ds/csargent/miniconda3/envs/cle/share/psi4/basis/aug-cc-pvdz-jkfit.gbs

  ==> Integral Setup <==

  ==> DiskDFJK: Density-Fitted J/K Matrices <==

    J tasked:                  Yes
    K tasked:                  Yes
    wK tasked:                  No
    OpenMP threads:              6
    Integrals threads:           6
    Memory [MiB]:             5006
    Algorithm:                Core
    Integral Cache:           SAVE
    Schwarz Cutoff:          1E-12
    Fitting Condition:       1E-10

   => Auxiliary Basis Set <=

  Basis Set: (AUG-CC-PVDZ AUX)
    Blend: AUG-CC-PVDZ-JKFIT
    Number of shells: 376
    Number of basis functions: 1116
    Number of Cartesian functions: 1290
    Spherical Harmonics?: true
    Max angular momentum: 3

  Minimum eigenvalue in the overlap matrix is 2.1837063096E-05.
  Reciprocal condition number of the overlap matrix is 1.8394514218E-06.
    Using symmetric orthogonalization.

  ==> Pre-Iterations <==

  SCF Guess: Superposition of Atomic Densities via on-the-fly atomic UHF (no occupation information).

   -------------------------
    Irrep   Nso     Nmo
   -------------------------
     A        302     302
   -------------------------
    Total     302     302
   -------------------------

  ==> Iterations <==

                           Total Energy        Delta E     RMS |[F,P]|

   @DF-RHF iter SAD:  -449.11714340015260   -4.49117e+02   0.00000e+00
   @DF-RHF iter   1:  -449.39619089371831   -2.79047e-01   2.30600e-03 DIIS
   @DF-RHF iter   2:  -449.61069058799700   -2.14500e-01   1.31134e-03 DIIS
   @DF-RHF iter   3:  -449.68340384083683   -7.27133e-02   2.46024e-04 DIIS
   @DF-RHF iter   4:  -449.68677307895541   -3.36924e-03   1.12938e-04 DIIS
   @DF-RHF iter   5:  -449.68737564727599   -6.02568e-04   1.78811e-05 DIIS
   @DF-RHF iter   6:  -449.68741030883575   -3.46616e-05   7.94525e-06 DIIS
   @DF-RHF iter   7:  -449.68741648363141   -6.17480e-06   3.10436e-06 DIIS
   @DF-RHF iter   8:  -449.68741794795369   -1.46432e-06   1.09982e-06 DIIS
   @DF-RHF iter   9:  -449.68741816963416   -2.21680e-07   2.66131e-07 DIIS
   @DF-RHF iter  10:  -449.68741818071203   -1.10779e-08   1.04034e-07 DIIS
   @DF-RHF iter  11:  -449.68741818237345   -1.66142e-09   4.62334e-08 DIIS
   @DF-RHF iter  12:  -449.68741818267790   -3.04453e-10   1.37542e-08 DIIS
   @DF-RHF iter  13:  -449.68741818270485   -2.69438e-11   5.07835e-09 DIIS
   @DF-RHF iter  14:  -449.68741818270797   -3.12639e-12   2.24035e-09 DIIS
   @DF-RHF iter  15:  -449.68741818270905   -1.08002e-12   7.46345e-10 DIIS
   @DF-RHF iter  16:  -449.68741818270865    3.97904e-13   3.31863e-10 DIIS
   @DF-RHF iter  17:  -449.68741818270831    3.41061e-13   6.65790e-11 DIIS
  Energy and wave function converged.


  ==> Post-Iterations <==

    Orbital Energies [Eh]
    ---------------------

    Doubly Occupied:

       1A    -15.637327     2A    -15.637327     3A    -15.551496
       4A    -15.551496     5A    -11.301191     6A    -11.301191
       7A    -11.263412     8A    -11.263412     9A    -11.245907
      10A    -11.245907    11A     -1.353129    12A     -1.353129
      13A     -1.169365    14A     -1.169365    15A     -1.012358
      16A     -1.012358    17A     -0.824650    18A     -0.824650
      19A     -0.803990    20A     -0.803990    21A     -0.760929
      22A     -0.760929    23A     -0.610357    24A     -0.610357
      25A     -0.604219    26A     -0.604219    27A     -0.602174
      28A     -0.602174    29A     -0.571211    30A     -0.571211
      31A     -0.435766    32A     -0.435766    33A     -0.400732
      34A     -0.400732    35A     -0.320944    36A     -0.320944

    Virtual:

      37A      0.025210    38A      0.025210    39A      0.041336
      40A      0.041336    41A      0.049726    42A      0.049726
      43A      0.061612    44A      0.061612    45A      0.088819
      46A      0.088819    47A      0.101092    48A      0.101092
      49A      0.120560    50A      0.120560    51A      0.125349
      52A      0.125349    53A      0.133285    54A      0.133285
      55A      0.133513    56A      0.133513    57A      0.140677
      58A      0.140677    59A      0.156303    60A      0.156303
      61A      0.158386    62A      0.158386    63A      0.171736
      64A      0.171736    65A      0.177936    66A      0.177936
      67A      0.186947    68A      0.186947    69A      0.211270
      70A      0.211270    71A      0.220005    72A      0.220005
      73A      0.232087    74A      0.232087    75A      0.241162
      76A      0.241162    77A      0.261356    78A      0.261356
      79A      0.267489    80A      0.267489    81A      0.277612
      82A      0.277612    83A      0.301480    84A      0.301480
      85A      0.314127    86A      0.314127    87A      0.337947
      88A      0.337947    89A      0.361257    90A      0.361257
      91A      0.370498    92A      0.370498    93A      0.379567
      94A      0.379567    95A      0.388036    96A      0.388036
      97A      0.396850    98A      0.396850    99A      0.416743
     100A      0.416744   101A      0.428721   102A      0.428721
     103A      0.451787   104A      0.451787   105A      0.466088
     106A      0.466088   107A      0.480975   108A      0.480975
     109A      0.486036   110A      0.486036   111A      0.487888
     112A      0.487888   113A      0.551446   114A      0.551446
     115A      0.556131   116A      0.556131   117A      0.568018
     118A      0.568018   119A      0.576200   120A      0.576200
     121A      0.594000   122A      0.594000   123A      0.598696
     124A      0.598696   125A      0.615813   126A      0.615813
     127A      0.636291   128A      0.636291   129A      0.652234
     130A      0.652234   131A      0.669020   132A      0.669020
     133A      0.671078   134A      0.671078   135A      0.677926
     136A      0.677926   137A      0.683626   138A      0.683626
     139A      0.714444   140A      0.714444   141A      0.725512
     142A      0.725512   143A      0.740972   144A      0.740972
     145A      0.762430   146A      0.762430   147A      0.767129
     148A      0.767129   149A      0.790675   150A      0.790675
     151A      0.793323   152A      0.793323   153A      0.809490
     154A      0.809490   155A      0.860137   156A      0.860137
     157A      0.871164   158A      0.871164   159A      0.885493
     160A      0.885493   161A      0.889580   162A      0.889580
     163A      0.954089   164A      0.954089   165A      0.976703
     166A      0.976703   167A      0.998091   168A      0.998091
     169A      1.010425   170A      1.010425   171A      1.017142
     172A      1.017142   173A      1.030410   174A      1.030410
     175A      1.077074   176A      1.077074   177A      1.084283
     178A      1.084283   179A      1.126721   180A      1.126721
     181A      1.140229   182A      1.140229   183A      1.149305
     184A      1.149305   185A      1.166905   186A      1.166905
     187A      1.217174   188A      1.217174   189A      1.260473
     190A      1.260473   191A      1.302276   192A      1.302276
     193A      1.384766   194A      1.384766   195A      1.397870
     196A      1.397870   197A      1.450877   198A      1.450877
     199A      1.503018   200A      1.503018   201A      1.518151
     202A      1.518151   203A      1.573873   204A      1.573873
     205A      1.574021   206A      1.574021   207A      1.596122
     208A      1.596122   209A      1.651894   210A      1.651894
     211A      1.671253   212A      1.671253   213A      1.705033
     214A      1.705033   215A      1.724191   216A      1.724191
     217A      1.782389   218A      1.782389   219A      1.798810
     220A      1.798810   221A      1.806806   222A      1.806806
     223A      1.864680   224A      1.864680   225A      1.881201
     226A      1.881201   227A      1.924120   228A      1.924120
     229A      1.964725   230A      1.964725   231A      2.021756
     232A      2.021756   233A      2.025175   234A      2.025175
     235A      2.072723   236A      2.072723   237A      2.106794
     238A      2.106794   239A      2.126504   240A      2.126504
     241A      2.135710   242A      2.135710   243A      2.168413
     244A      2.168413   245A      2.178555   246A      2.178555
     247A      2.266821   248A      2.266821   249A      2.275692
     250A      2.275692   251A      2.300650   252A      2.300650
     253A      2.331805   254A      2.331805   255A      2.417508
     256A      2.417508   257A      2.496663   258A      2.496663
     259A      2.513757   260A      2.513757   261A      2.545087
     262A      2.545087   263A      2.585486   264A      2.585486
     265A      2.633503   266A      2.633503   267A      2.733838
     268A      2.733838   269A      2.746757   270A      2.746757
     271A      2.766832   272A      2.766832   273A      2.793887
     274A      2.793887   275A      2.803175   276A      2.803175
     277A      2.837384   278A      2.837384   279A      2.866945
     280A      2.866945   281A      2.952478   282A      2.952478
     283A      2.980590   284A      2.980590   285A      3.050944
     286A      3.050944   287A      3.069650   288A      3.069650
     289A      3.198895   290A      3.198895   291A      3.208533
     292A      3.208533   293A      3.334549   294A      3.334549
     295A      3.354306   296A      3.354306   297A      3.518286
     298A      3.518286   299A      3.768026   300A      3.768026
     301A      4.108770   302A      4.108770

    Final Occupation by Irrep:
              A
    DOCC [    36 ]

  @DF-RHF Final Energy:  -449.68741818270831

   => Energetics <=

    Nuclear Repulsion Energy =            358.3346178168010283
    One-Electron Energy =               -1318.1674454994872576
    Two-Electron Energy =                 510.1454094999779159
    Total Energy =                       -449.6874181827083135

Computation Completed


Properties will be evaluated at   0.000000,   0.000000,   0.000000 [a0]

Properties computed using the SCF density matrix

  Nuclear Dipole Moment: [e a0]
     X: -1033.7432      Y:   763.3279      Z:  -560.6058

  Electronic Dipole Moment: [e a0]
     X:  1033.7432      Y:  -763.3279      Z:   560.6058

  Dipole Moment: [e a0]
     X:    -0.0000      Y:    -0.0000      Z:     0.0000     Total:     0.0000

  Dipole Moment: [D]
     X:    -0.0000      Y:    -0.0000      Z:     0.0000     Total:     0.0000


*** tstop() called on ds1 at Tue Sep 14 16:53:39 2021
Module time:
	user time   =      22.11 seconds =       0.37 minutes
	system time =       0.53 seconds =       0.01 minutes
	total time  =          5 seconds =       0.08 minutes
Total time:
	user time   =      22.11 seconds =       0.37 minutes
	system time =       0.53 seconds =       0.01 minutes
	total time  =          5 seconds =       0.08 minutes

  //>>>>>>>>>>>>>>>>>>>>>>>>>>>>>>>>>>>//
  //            Monomer A HF           //
  //<<<<<<<<<<<<<<<<<<<<<<<<<<<<<<<<<<<//


*** tstart() called on ds1
*** at Tue Sep 14 16:53:39 2021

   => Loading Basis Set <=

    Name: AUG-CC-PVDZ
    Role: ORBITAL
    Keyword: BASIS
    atoms 1-2, 10-11 entry N          line   218 file /theoryfs2/ds/csargent/miniconda3/envs/cle/share/psi4/basis/aug-cc-pvdz.gbs
    atoms 3-6, 12-15 entry H          line    40 file /theoryfs2/ds/csargent/miniconda3/envs/cle/share/psi4/basis/aug-cc-pvdz.gbs
    atoms 7-9, 16-18 entry C          line   182 file /theoryfs2/ds/csargent/miniconda3/envs/cle/share/psi4/basis/aug-cc-pvdz.gbs


         ---------------------------------------------------------
                                   SCF
               by Justin Turney, Rob Parrish, Andy Simmonett
                          and Daniel G. A. Smith
                              RHF Reference
                        6 Threads,   6675 MiB Core
         ---------------------------------------------------------

  ==> Geometry <==

    Molecular point group: c1
    Full point group: C1

    Geometry (in Bohr), charge = 0, multiplicity = 1:

       Center              X                  Y                   Z               Mass
    ------------   -----------------  -----------------  -----------------  -----------------
         N           -4.293096210000    -3.068374310000     5.305162310000    14.003074004430
         N           -2.158473710000    -2.926272960000     1.720374480000    14.003074004430
         H           -0.025455870000    -6.359035750000     2.220464520000     1.007825032230
         H           -2.685669680000    -6.532602410000     6.614459540000     1.007825032230
         H           -4.743884230000    -0.006090060000     2.756159680000     1.007825032230
         H           -1.410455400000    -2.247231470000     0.000000000000     1.007825032230
         C           -1.437379910000    -5.075048480000     2.940658910000    12.000000000000
         C           -2.769007820000    -5.146099160000     5.135228800000    12.000000000000
         C           -3.859550360000    -1.777281980000     3.210934110000    12.000000000000
      Gh(N)         -24.421991580000    24.271926870000   -20.877545400000    14.003074004430
      Gh(N)         -26.556614080000    24.129825520000   -17.292757570000    14.003074004430
      Gh(H)         -28.689631930000    27.562588310000   -17.792847610000     1.007825032230
      Gh(H)         -26.029418110000    27.736154970000   -22.186842630000     1.007825032230
      Gh(H)         -23.971203570000    21.209642620000   -18.328542760000     1.007825032230
      Gh(H)         -27.304632390000    23.450784030000   -15.572383090000     1.007825032230
      Gh(C)         -27.277707880000    26.278601040000   -18.513042000000    12.000000000000
      Gh(C)         -25.946079970000    26.349651720000   -20.707611890000    12.000000000000
      Gh(C)         -24.855537440000    22.980834540000   -18.783317200000    12.000000000000

  Running in c1 symmetry.

  Rotational constants: A =      0.02448  B =      0.00053  C =      0.00052 [cm^-1]
  Rotational constants: A =    733.91453  B =     15.97563  C =     15.67741 [MHz]
  Nuclear repulsion =  164.086695994184396

  Charge       = 0
  Multiplicity = 1
  Electrons    = 36
  Nalpha       = 18
  Nbeta        = 18

  ==> Algorithm <==

  SCF Algorithm Type is DF.
  DIIS enabled.
  MOM disabled.
  Fractional occupation disabled.
  Guess Type is SAD.
  Energy threshold   = 1.00e-10
  Density threshold  = 1.00e-10
  Integral threshold = 1.00e-12

  ==> Primary Basis <==

  Basis Set: AUG-CC-PVDZ
    Blend: AUG-CC-PVDZ
    Number of shells: 130
    Number of basis functions: 302
    Number of Cartesian functions: 322
    Spherical Harmonics?: true
    Max angular momentum: 2

   => Loading Basis Set <=

    Name: (AUG-CC-PVDZ AUX)
    Role: JKFIT
    Keyword: DF_BASIS_SCF
    atoms 1-2, 10-11 entry N          line   212 file /theoryfs2/ds/csargent/miniconda3/envs/cle/share/psi4/basis/aug-cc-pvdz-jkfit.gbs
    atoms 3-6, 12-15 entry H          line    70 file /theoryfs2/ds/csargent/miniconda3/envs/cle/share/psi4/basis/aug-cc-pvdz-jkfit.gbs
    atoms 7-9, 16-18 entry C          line   154 file /theoryfs2/ds/csargent/miniconda3/envs/cle/share/psi4/basis/aug-cc-pvdz-jkfit.gbs

  ==> Integral Setup <==

  ==> DiskDFJK: Density-Fitted J/K Matrices <==

    J tasked:                  Yes
    K tasked:                  Yes
    wK tasked:                  No
    OpenMP threads:              6
    Integrals threads:           6
    Memory [MiB]:             5006
    Algorithm:                Core
    Integral Cache:           LOAD
    Schwarz Cutoff:          1E-12
    Fitting Condition:       1E-10

   => Auxiliary Basis Set <=

  Basis Set: (AUG-CC-PVDZ AUX)
    Blend: AUG-CC-PVDZ-JKFIT
    Number of shells: 376
    Number of basis functions: 1116
    Number of Cartesian functions: 1290
    Spherical Harmonics?: true
    Max angular momentum: 3

  Minimum eigenvalue in the overlap matrix is 2.1837063096E-05.
  Reciprocal condition number of the overlap matrix is 1.8394514218E-06.
    Using symmetric orthogonalization.

  ==> Pre-Iterations <==

  SCF Guess: Superposition of Atomic Densities via on-the-fly atomic UHF (no occupation information).

   -------------------------
    Irrep   Nso     Nmo
   -------------------------
     A        302     302
   -------------------------
    Total     302     302
   -------------------------

  ==> Iterations <==

                           Total Energy        Delta E     RMS |[F,P]|

   @DF-RHF iter SAD:  -224.55857169516713   -2.24559e+02   0.00000e+00
   @DF-RHF iter   1:  -224.69806464742300   -1.39493e-01   1.63067e-03 DIIS
   @DF-RHF iter   2:  -224.80532026606727   -1.07256e-01   9.27384e-04 DIIS
   @DF-RHF iter   3:  -224.84168817005707   -3.63679e-02   1.74019e-04 DIIS
   @DF-RHF iter   4:  -224.84337342213061   -1.68525e-03   7.98972e-05 DIIS
   @DF-RHF iter   5:  -224.84367500284435   -3.01581e-04   1.26452e-05 DIIS
   @DF-RHF iter   6:  -224.84369233987735   -1.73370e-05   5.61871e-06 DIIS
   @DF-RHF iter   7:  -224.84369542794676   -3.08807e-06   2.19503e-06 DIIS
   @DF-RHF iter   8:  -224.84369615986512   -7.31918e-07   7.77587e-07 DIIS
   @DF-RHF iter   9:  -224.84369627065905   -1.10794e-07   1.87961e-07 DIIS
   @DF-RHF iter  10:  -224.84369627619489   -5.53584e-09   7.33125e-08 DIIS
   @DF-RHF iter  11:  -224.84369627702080   -8.25906e-10   3.26918e-08 DIIS
   @DF-RHF iter  12:  -224.84369627717356   -1.52767e-10   9.70884e-09 DIIS
   @DF-RHF iter  13:  -224.84369627718615   -1.25908e-11   3.58840e-09 DIIS
   @DF-RHF iter  14:  -224.84369627718806   -1.90425e-12   1.58275e-09 DIIS
   @DF-RHF iter  15:  -224.84369627718823   -1.70530e-13   5.27556e-10 DIIS
   @DF-RHF iter  16:  -224.84369627718823    0.00000e+00   2.34517e-10 DIIS
   @DF-RHF iter  17:  -224.84369627718854   -3.12639e-13   4.71141e-11 DIIS
  Energy and wave function converged.


  ==> Post-Iterations <==

    Orbital Energies [Eh]
    ---------------------

    Doubly Occupied:

       1A    -15.637071     2A    -15.551216     3A    -11.300916
       4A    -11.263160     5A    -11.245653     6A     -1.352867
       7A     -1.169098     8A     -1.012098     9A     -0.824390
      10A     -0.803731    11A     -0.760666    12A     -0.610096
      13A     -0.603958    14A     -0.601922    15A     -0.570942
      16A     -0.435483    17A     -0.400464    18A     -0.320685

    Virtual:

      19A      0.022415    20A      0.025388    21A      0.039908
      22A      0.041580    23A      0.043480    24A      0.049997
      25A      0.061864    26A      0.067585    27A      0.076366
      28A      0.085997    29A      0.089096    30A      0.097402
      31A      0.101397    32A      0.120831    33A      0.124474
      34A      0.124880    35A      0.125577    36A      0.126681
      37A      0.127113    38A      0.133472    39A      0.133773
      40A      0.133903    41A      0.137998    42A      0.140942
      43A      0.156500    44A      0.156589    45A      0.158699
      46A      0.171988    47A      0.178189    48A      0.187224
      49A      0.192050    50A      0.207625    51A      0.209217
      52A      0.211559    53A      0.212317    54A      0.220090
      55A      0.220268    56A      0.222404    57A      0.232359
      58A      0.232959    59A      0.241408    60A      0.261605
      61A      0.267803    62A      0.271987    63A      0.277911
      64A      0.299185    65A      0.301746    66A      0.306291
      67A      0.314442    68A      0.319092    69A      0.338197
      70A      0.359992    71A      0.361488    72A      0.370745
      73A      0.375390    74A      0.379800    75A      0.388291
      76A      0.393279    77A      0.397097    78A      0.417031
      79A      0.427287    80A      0.429000    81A      0.435101
      82A      0.440215    83A      0.448905    84A      0.452020
      85A      0.452059    86A      0.466350    87A      0.468022
      88A      0.480883    89A      0.481229    90A      0.486283
      91A      0.488151    92A      0.517194    93A      0.520454
      94A      0.535817    95A      0.538136    96A      0.542997
      97A      0.551710    98A      0.555703    99A      0.556382
     100A      0.568280   101A      0.576474   102A      0.579269
     103A      0.587417   104A      0.594249   105A      0.598939
     106A      0.606330   107A      0.611903   108A      0.616080
     109A      0.618213   110A      0.636538   111A      0.639651
     112A      0.652504   113A      0.669282   114A      0.671337
     115A      0.677516   116A      0.678185   117A      0.683650
     118A      0.683874   119A      0.711039   120A      0.714698
     121A      0.725758   122A      0.735989   123A      0.741238
     124A      0.756008   125A      0.762698   126A      0.767400
     127A      0.790929   128A      0.793606   129A      0.798115
     130A      0.809747   131A      0.810361   132A      0.812317
     133A      0.823168   134A      0.836479   135A      0.859501
     136A      0.860398   137A      0.871425   138A      0.885765
     139A      0.886424   140A      0.889823   141A      0.909626
     142A      0.919525   143A      0.926785   144A      0.954351
     145A      0.968620   146A      0.976964   147A      0.991703
     148A      0.998360   149A      1.010706   150A      1.015325
     151A      1.017404   152A      1.030676   153A      1.058906
     154A      1.077353   155A      1.078511   156A      1.084552
     157A      1.103543   158A      1.115919   159A      1.126983
     160A      1.132383   161A      1.140497   162A      1.149565
     163A      1.167170   164A      1.170781   165A      1.173952
     166A      1.197448   167A      1.210480   168A      1.217445
     169A      1.260721   170A      1.277905   171A      1.290534
     172A      1.296876   173A      1.302539   174A      1.312456
     175A      1.318007   176A      1.347467   177A      1.384017
     178A      1.385028   179A      1.398145   180A      1.451143
     181A      1.494822   182A      1.503288   183A      1.515735
     184A      1.518410   185A      1.541253   186A      1.574127
     187A      1.574285   188A      1.596381   189A      1.652159
     190A      1.660850   191A      1.671505   192A      1.705286
     193A      1.724477   194A      1.782643   195A      1.799067
     196A      1.807063   197A      1.864950   198A      1.881477
     199A      1.924391   200A      1.964987   201A      2.022005
     202A      2.025429   203A      2.039619   204A      2.072981
     205A      2.100983   206A      2.107054   207A      2.119353
     208A      2.126759   209A      2.131321   210A      2.135965
     211A      2.149446   212A      2.168670   213A      2.178815
     214A      2.185082   215A      2.229708   216A      2.252712
     217A      2.267082   218A      2.275963   219A      2.300924
     220A      2.308651   221A      2.327132   222A      2.332072
     223A      2.376799   224A      2.405646   225A      2.413389
     226A      2.417758   227A      2.455766   228A      2.470835
     229A      2.493949   230A      2.496919   231A      2.514025
     232A      2.525871   233A      2.545345   234A      2.545478
     235A      2.576913   236A      2.585743   237A      2.599914
     238A      2.633765   239A      2.696298   240A      2.734093
     241A      2.747025   242A      2.767089   243A      2.790403
     244A      2.794149   245A      2.803444   246A      2.828927
     247A      2.837641   248A      2.867213   249A      2.895833
     250A      2.933376   251A      2.949517   252A      2.952738
     253A      2.980862   254A      3.043598   255A      3.051201
     256A      3.069910   257A      3.076299   258A      3.132002
     259A      3.159741   260A      3.183060   261A      3.199163
     262A      3.208795   263A      3.213496   264A      3.334816
     265A      3.340977   266A      3.354572   267A      3.354874
     268A      3.363030   269A      3.458795   270A      3.494559
     271A      3.518552   272A      3.569744   273A      3.609032
     274A      3.707380   275A      3.726861   276A      3.768294
     277A      3.778528   278A      3.798341   279A      3.858094
     280A      3.870857   281A      4.004018   282A      4.109022
     283A      4.212902   284A      4.636894   285A      4.638956
     286A      4.696117   287A      4.771952   288A      4.880232
     289A      5.021568   290A      5.254817   291A      5.373338
     292A      5.494971   293A      5.610541   294A      5.716450
     295A      5.884071   296A      6.089871   297A      6.198309
     298A     18.255652   299A     18.590262   300A     19.300612
     301A     25.312056   302A     25.453443

    Final Occupation by Irrep:
              A
    DOCC [    18 ]

  @DF-RHF Final Energy:  -224.84369627718854

   => Energetics <=

    Nuclear Repulsion Energy =            164.0866959941843959
    One-Electron Energy =                -628.9319562961443353
    Two-Electron Energy =                 240.0015640247713691
    Total Energy =                       -224.8436962771885419

Computation Completed


Properties will be evaluated at   0.000000,   0.000000,   0.000000 [a0]

Properties computed using the SCF density matrix

  Nuclear Dipole Moment: [e a0]
     X:  -102.4221      Y:  -129.0981      Z:   128.4908

  Electronic Dipole Moment: [e a0]
     X:   103.2259      Y:   129.2613      Z:  -129.8232

  Dipole Moment: [e a0]
     X:     0.8038      Y:     0.1633      Z:    -1.3324     Total:     1.5646

  Dipole Moment: [D]
     X:     2.0431      Y:     0.4150      Z:    -3.3867     Total:     3.9769


*** tstop() called on ds1 at Tue Sep 14 16:53:43 2021
Module time:
	user time   =      16.02 seconds =       0.27 minutes
	system time =       0.34 seconds =       0.01 minutes
	total time  =          4 seconds =       0.07 minutes
Total time:
	user time   =      38.30 seconds =       0.64 minutes
	system time =       0.87 seconds =       0.01 minutes
	total time  =          9 seconds =       0.15 minutes

  //>>>>>>>>>>>>>>>>>>>>>>>>>>>>>>>>>>>//
  //            Monomer B HF           //
  //<<<<<<<<<<<<<<<<<<<<<<<<<<<<<<<<<<<//


*** tstart() called on ds1
*** at Tue Sep 14 16:53:43 2021

   => Loading Basis Set <=

    Name: AUG-CC-PVDZ
    Role: ORBITAL
    Keyword: BASIS
    atoms 1-2, 10-11 entry N          line   218 file /theoryfs2/ds/csargent/miniconda3/envs/cle/share/psi4/basis/aug-cc-pvdz.gbs
    atoms 3-6, 12-15 entry H          line    40 file /theoryfs2/ds/csargent/miniconda3/envs/cle/share/psi4/basis/aug-cc-pvdz.gbs
    atoms 7-9, 16-18 entry C          line   182 file /theoryfs2/ds/csargent/miniconda3/envs/cle/share/psi4/basis/aug-cc-pvdz.gbs


         ---------------------------------------------------------
                                   SCF
               by Justin Turney, Rob Parrish, Andy Simmonett
                          and Daniel G. A. Smith
                              RHF Reference
                        6 Threads,   6675 MiB Core
         ---------------------------------------------------------

  ==> Geometry <==

    Molecular point group: c1
    Full point group: C1

    Geometry (in Bohr), charge = 0, multiplicity = 1:

       Center              X                  Y                   Z               Mass
    ------------   -----------------  -----------------  -----------------  -----------------
      Gh(N)          -4.293096210000    -3.068374310000     5.305162310000    14.003074004430
      Gh(N)          -2.158473710000    -2.926272960000     1.720374480000    14.003074004430
      Gh(H)          -0.025455870000    -6.359035750000     2.220464520000     1.007825032230
      Gh(H)          -2.685669680000    -6.532602410000     6.614459540000     1.007825032230
      Gh(H)          -4.743884230000    -0.006090060000     2.756159680000     1.007825032230
      Gh(H)          -1.410455400000    -2.247231470000     0.000000000000     1.007825032230
      Gh(C)          -1.437379910000    -5.075048480000     2.940658910000    12.000000000000
      Gh(C)          -2.769007820000    -5.146099160000     5.135228800000    12.000000000000
      Gh(C)          -3.859550360000    -1.777281980000     3.210934110000    12.000000000000
         N          -24.421991580000    24.271926870000   -20.877545400000    14.003074004430
         N          -26.556614080000    24.129825520000   -17.292757570000    14.003074004430
         H          -28.689631930000    27.562588310000   -17.792847610000     1.007825032230
         H          -26.029418110000    27.736154970000   -22.186842630000     1.007825032230
         H          -23.971203570000    21.209642620000   -18.328542760000     1.007825032230
         H          -27.304632390000    23.450784030000   -15.572383090000     1.007825032230
         C          -27.277707880000    26.278601040000   -18.513042000000    12.000000000000
         C          -25.946079970000    26.349651720000   -20.707611890000    12.000000000000
         C          -24.855537440000    22.980834540000   -18.783317200000    12.000000000000

  Running in c1 symmetry.

  Rotational constants: A =      0.02448  B =      0.00053  C =      0.00052 [cm^-1]
  Rotational constants: A =    733.91453  B =     15.97563  C =     15.67741 [MHz]
  Nuclear repulsion =  164.086696030978288

  Charge       = 0
  Multiplicity = 1
  Electrons    = 36
  Nalpha       = 18
  Nbeta        = 18

  ==> Algorithm <==

  SCF Algorithm Type is DF.
  DIIS enabled.
  MOM disabled.
  Fractional occupation disabled.
  Guess Type is SAD.
  Energy threshold   = 1.00e-10
  Density threshold  = 1.00e-10
  Integral threshold = 1.00e-12

  ==> Primary Basis <==

  Basis Set: AUG-CC-PVDZ
    Blend: AUG-CC-PVDZ
    Number of shells: 130
    Number of basis functions: 302
    Number of Cartesian functions: 322
    Spherical Harmonics?: true
    Max angular momentum: 2

   => Loading Basis Set <=

    Name: (AUG-CC-PVDZ AUX)
    Role: JKFIT
    Keyword: DF_BASIS_SCF
    atoms 1-2, 10-11 entry N          line   212 file /theoryfs2/ds/csargent/miniconda3/envs/cle/share/psi4/basis/aug-cc-pvdz-jkfit.gbs
    atoms 3-6, 12-15 entry H          line    70 file /theoryfs2/ds/csargent/miniconda3/envs/cle/share/psi4/basis/aug-cc-pvdz-jkfit.gbs
    atoms 7-9, 16-18 entry C          line   154 file /theoryfs2/ds/csargent/miniconda3/envs/cle/share/psi4/basis/aug-cc-pvdz-jkfit.gbs

  ==> Integral Setup <==

  ==> DiskDFJK: Density-Fitted J/K Matrices <==

    J tasked:                  Yes
    K tasked:                  Yes
    wK tasked:                  No
    OpenMP threads:              6
    Integrals threads:           6
    Memory [MiB]:             5006
    Algorithm:                Core
    Integral Cache:           LOAD
    Schwarz Cutoff:          1E-12
    Fitting Condition:       1E-10

   => Auxiliary Basis Set <=

  Basis Set: (AUG-CC-PVDZ AUX)
    Blend: AUG-CC-PVDZ-JKFIT
    Number of shells: 376
    Number of basis functions: 1116
    Number of Cartesian functions: 1290
    Spherical Harmonics?: true
    Max angular momentum: 3

  Minimum eigenvalue in the overlap matrix is 2.1837063096E-05.
  Reciprocal condition number of the overlap matrix is 1.8394514218E-06.
    Using symmetric orthogonalization.

  ==> Pre-Iterations <==

  SCF Guess: Superposition of Atomic Densities via on-the-fly atomic UHF (no occupation information).

   -------------------------
    Irrep   Nso     Nmo
   -------------------------
     A        302     302
   -------------------------
    Total     302     302
   -------------------------

  ==> Iterations <==

                           Total Energy        Delta E     RMS |[F,P]|

   @DF-RHF iter SAD:  -224.55857169981985   -2.24559e+02   0.00000e+00
   @DF-RHF iter   1:  -224.69806464767336   -1.39493e-01   1.63067e-03 DIIS
   @DF-RHF iter   2:  -224.80532026644551   -1.07256e-01   9.27384e-04 DIIS
   @DF-RHF iter   3:  -224.84168817046140   -3.63679e-02   1.74019e-04 DIIS
   @DF-RHF iter   4:  -224.84337342253113   -1.68525e-03   7.98972e-05 DIIS
   @DF-RHF iter   5:  -224.84367500324456   -3.01581e-04   1.26452e-05 DIIS
   @DF-RHF iter   6:  -224.84369234027739   -1.73370e-05   5.61871e-06 DIIS
   @DF-RHF iter   7:  -224.84369542834702   -3.08807e-06   2.19503e-06 DIIS
   @DF-RHF iter   8:  -224.84369616026490   -7.31918e-07   7.77587e-07 DIIS
   @DF-RHF iter   9:  -224.84369627105897   -1.10794e-07   1.87961e-07 DIIS
   @DF-RHF iter  10:  -224.84369627659487   -5.53590e-09   7.33125e-08 DIIS
   @DF-RHF iter  11:  -224.84369627742063   -8.25764e-10   3.26918e-08 DIIS
   @DF-RHF iter  12:  -224.84369627757314   -1.52511e-10   9.70884e-09 DIIS
   @DF-RHF iter  13:  -224.84369627758633   -1.31877e-11   3.58840e-09 DIIS
   @DF-RHF iter  14:  -224.84369627758792   -1.59162e-12   1.58275e-09 DIIS
   @DF-RHF iter  15:  -224.84369627758844   -5.11591e-13   5.27556e-10 DIIS
   @DF-RHF iter  16:  -224.84369627758818    2.55795e-13   2.34517e-10 DIIS
   @DF-RHF iter  17:  -224.84369627758841   -2.27374e-13   4.71136e-11 DIIS
  Energy and wave function converged.


  ==> Post-Iterations <==

    Orbital Energies [Eh]
    ---------------------

    Doubly Occupied:

       1A    -15.637071     2A    -15.551216     3A    -11.300916
       4A    -11.263160     5A    -11.245653     6A     -1.352867
       7A     -1.169098     8A     -1.012098     9A     -0.824390
      10A     -0.803731    11A     -0.760666    12A     -0.610096
      13A     -0.603958    14A     -0.601922    15A     -0.570942
      16A     -0.435483    17A     -0.400464    18A     -0.320685

    Virtual:

      19A      0.022415    20A      0.025388    21A      0.039908
      22A      0.041580    23A      0.043480    24A      0.049997
      25A      0.061864    26A      0.067585    27A      0.076366
      28A      0.085997    29A      0.089096    30A      0.097402
      31A      0.101397    32A      0.120831    33A      0.124474
      34A      0.124880    35A      0.125577    36A      0.126681
      37A      0.127113    38A      0.133472    39A      0.133773
      40A      0.133903    41A      0.137998    42A      0.140942
      43A      0.156500    44A      0.156589    45A      0.158699
      46A      0.171988    47A      0.178189    48A      0.187224
      49A      0.192050    50A      0.207625    51A      0.209217
      52A      0.211559    53A      0.212317    54A      0.220090
      55A      0.220268    56A      0.222404    57A      0.232359
      58A      0.232959    59A      0.241408    60A      0.261605
      61A      0.267803    62A      0.271987    63A      0.277911
      64A      0.299185    65A      0.301746    66A      0.306291
      67A      0.314442    68A      0.319092    69A      0.338197
      70A      0.359992    71A      0.361488    72A      0.370745
      73A      0.375390    74A      0.379800    75A      0.388291
      76A      0.393279    77A      0.397097    78A      0.417031
      79A      0.427287    80A      0.429000    81A      0.435101
      82A      0.440215    83A      0.448905    84A      0.452020
      85A      0.452059    86A      0.466350    87A      0.468022
      88A      0.480883    89A      0.481229    90A      0.486283
      91A      0.488151    92A      0.517194    93A      0.520454
      94A      0.535817    95A      0.538136    96A      0.542997
      97A      0.551710    98A      0.555703    99A      0.556382
     100A      0.568280   101A      0.576474   102A      0.579269
     103A      0.587417   104A      0.594249   105A      0.598939
     106A      0.606330   107A      0.611903   108A      0.616080
     109A      0.618213   110A      0.636538   111A      0.639651
     112A      0.652504   113A      0.669282   114A      0.671337
     115A      0.677516   116A      0.678185   117A      0.683650
     118A      0.683874   119A      0.711039   120A      0.714698
     121A      0.725758   122A      0.735989   123A      0.741238
     124A      0.756008   125A      0.762698   126A      0.767400
     127A      0.790929   128A      0.793606   129A      0.798115
     130A      0.809747   131A      0.810361   132A      0.812317
     133A      0.823168   134A      0.836479   135A      0.859501
     136A      0.860398   137A      0.871425   138A      0.885765
     139A      0.886424   140A      0.889823   141A      0.909626
     142A      0.919525   143A      0.926785   144A      0.954351
     145A      0.968620   146A      0.976964   147A      0.991703
     148A      0.998360   149A      1.010706   150A      1.015325
     151A      1.017404   152A      1.030676   153A      1.058906
     154A      1.077353   155A      1.078511   156A      1.084552
     157A      1.103543   158A      1.115919   159A      1.126983
     160A      1.132383   161A      1.140497   162A      1.149565
     163A      1.167170   164A      1.170781   165A      1.173952
     166A      1.197448   167A      1.210480   168A      1.217445
     169A      1.260721   170A      1.277905   171A      1.290534
     172A      1.296876   173A      1.302539   174A      1.312456
     175A      1.318007   176A      1.347467   177A      1.384017
     178A      1.385028   179A      1.398145   180A      1.451143
     181A      1.494822   182A      1.503288   183A      1.515735
     184A      1.518410   185A      1.541253   186A      1.574127
     187A      1.574285   188A      1.596381   189A      1.652159
     190A      1.660850   191A      1.671505   192A      1.705286
     193A      1.724477   194A      1.782643   195A      1.799067
     196A      1.807063   197A      1.864950   198A      1.881477
     199A      1.924391   200A      1.964987   201A      2.022005
     202A      2.025429   203A      2.039619   204A      2.072981
     205A      2.100983   206A      2.107054   207A      2.119353
     208A      2.126759   209A      2.131321   210A      2.135965
     211A      2.149446   212A      2.168670   213A      2.178815
     214A      2.185082   215A      2.229708   216A      2.252712
     217A      2.267082   218A      2.275963   219A      2.300924
     220A      2.308651   221A      2.327132   222A      2.332072
     223A      2.376799   224A      2.405646   225A      2.413389
     226A      2.417758   227A      2.455766   228A      2.470835
     229A      2.493949   230A      2.496919   231A      2.514025
     232A      2.525871   233A      2.545345   234A      2.545478
     235A      2.576913   236A      2.585743   237A      2.599914
     238A      2.633765   239A      2.696298   240A      2.734093
     241A      2.747025   242A      2.767089   243A      2.790403
     244A      2.794149   245A      2.803444   246A      2.828927
     247A      2.837641   248A      2.867213   249A      2.895833
     250A      2.933376   251A      2.949517   252A      2.952738
     253A      2.980862   254A      3.043598   255A      3.051201
     256A      3.069910   257A      3.076299   258A      3.132002
     259A      3.159741   260A      3.183060   261A      3.199163
     262A      3.208795   263A      3.213496   264A      3.334816
     265A      3.340977   266A      3.354572   267A      3.354874
     268A      3.363030   269A      3.458795   270A      3.494559
     271A      3.518552   272A      3.569744   273A      3.609032
     274A      3.707380   275A      3.726861   276A      3.768294
     277A      3.778528   278A      3.798341   279A      3.858094
     280A      3.870857   281A      4.004018   282A      4.109022
     283A      4.212902   284A      4.636894   285A      4.638956
     286A      4.696117   287A      4.771952   288A      4.880232
     289A      5.021568   290A      5.254817   291A      5.373338
     292A      5.494971   293A      5.610541   294A      5.716450
     295A      5.884071   296A      6.089871   297A      6.198309
     298A     18.255652   299A     18.590262   300A     19.300612
     301A     25.312056   302A     25.453443

    Final Occupation by Irrep:
              A
    DOCC [    18 ]

  @DF-RHF Final Energy:  -224.84369627758841

   => Energetics <=

    Nuclear Repulsion Energy =            164.0866960309782883
    One-Electron Energy =                -628.9319563668740329
    Two-Electron Energy =                 240.0015640583073662
    Total Energy =                       -224.8436962775884069

Computation Completed


Properties will be evaluated at   0.000000,   0.000000,   0.000000 [a0]

Properties computed using the SCF density matrix

  Nuclear Dipole Moment: [e a0]
     X:  -931.3211      Y:   892.4260      Z:  -689.0966

  Electronic Dipole Moment: [e a0]
     X:   930.5173      Y:  -892.5892      Z:   690.4290

  Dipole Moment: [e a0]
     X:    -0.8038      Y:    -0.1633      Z:     1.3324     Total:     1.5646

  Dipole Moment: [D]
     X:    -2.0431      Y:    -0.4150      Z:     3.3867     Total:     3.9769


*** tstop() called on ds1 at Tue Sep 14 16:53:46 2021
Module time:
	user time   =      16.00 seconds =       0.27 minutes
	system time =       0.33 seconds =       0.01 minutes
	total time  =          3 seconds =       0.05 minutes
Total time:
	user time   =      54.46 seconds =       0.91 minutes
	system time =       1.21 seconds =       0.02 minutes
	total time  =         12 seconds =       0.20 minutes
  Constructing Basis Sets for SAPT...

   => Loading Basis Set <=

    Name: (AUG-CC-PVDZ AUX)
    Role: RIFIT
    Keyword: DF_BASIS_SAPT
    atoms 1-2, 10-11 entry N          line   158 file /theoryfs2/ds/csargent/miniconda3/envs/cle/share/psi4/basis/aug-cc-pvdz-ri.gbs
    atoms 3-6, 12-15 entry H          line    30 file /theoryfs2/ds/csargent/miniconda3/envs/cle/share/psi4/basis/aug-cc-pvdz-ri.gbs
    atoms 7-9, 16-18 entry C          line   112 file /theoryfs2/ds/csargent/miniconda3/envs/cle/share/psi4/basis/aug-cc-pvdz-ri.gbs


  //>>>>>>>>>>>>>>>>>>>>>>>>>>>>>>>>>>>//
  //               SAPT0               //
  //<<<<<<<<<<<<<<<<<<<<<<<<<<<<<<<<<<<//


*** tstart() called on ds1
*** at Tue Sep 14 16:53:46 2021

        SAPT0
    Ed Hohenstein
     6 June 2009

      Orbital Information
  --------------------------
    NSO        =       302
    NMO        =       302
    NRI        =       904
    NOCC A     =        18
    NOCC B     =        18
    FOCC A     =         5
    FOCC B     =         5
    NVIR A     =       284
    NVIR B     =       284

    Elst10,r            =    -0.000025591755 [Eh]
    Exch10              =    -0.000000000000 [Eh]
    Exch10 (S^2)        =    -0.000000000000 [Eh]

    Iter     Energy [mEh]          dE [mEh]         Residual      Time [s]
       1      -0.00001495       0.000014954       0.039900940             1
       2      -0.00001408      -0.000000870       0.011202268             1
       3      -0.00001567       0.000001585       0.004289746             1
       4      -0.00001586       0.000000194       0.001673167             1
       5      -0.00001582      -0.000000044       0.000856628             1
       6      -0.00001579      -0.000000026       0.000257532             1
       7      -0.00001580       0.000000006       0.000088353             1
       8      -0.00001580       0.000000002       0.000028594             1
       9      -0.00001580      -0.000000000       0.000010294             2
      10      -0.00001580      -0.000000000       0.000002311             2
      11      -0.00001580       0.000000000       0.000000946             2

    CHF Iterations converged


    Iter     Energy [mEh]          dE [mEh]         Residual      Time [s]
       1      -0.00001495       0.000014954       0.039900940             0
       2      -0.00001408      -0.000000870       0.011202268             0
       3      -0.00001567       0.000001585       0.004289745             0
       4      -0.00001586       0.000000194       0.001673167             0
       5      -0.00001582      -0.000000044       0.000856628             0
       6      -0.00001579      -0.000000026       0.000257532             1
       7      -0.00001580       0.000000006       0.000088353             1
       8      -0.00001580       0.000000002       0.000028594             1
       9      -0.00001580      -0.000000000       0.000010294             1
      10      -0.00001580      -0.000000000       0.000002311             1
      11      -0.00001580       0.000000000       0.000000946             1

    CHF Iterations converged

    Ind20,r (A<-B)      =    -0.000000015800 [Eh]
    Ind20,r (B<-A)      =    -0.000000015800 [Eh]
    Ind20,r             =    -0.000000031600 [Eh]
    Exch-Ind20,r (A<-B) =     0.000000000000 [Eh]
    Exch-Ind20,r (B<-A) =     0.000000000000 [Eh]
    Exch-Ind20,r        =     0.000000000000 [Eh]
    Disp20              =    -0.000000214261 [Eh]
    Disp20 (SS)         =    -0.000000107131 [Eh]
    Disp20 (OS)         =    -0.000000107131 [Eh]
    Exch-Disp20         =     0.000000000000 [Eh]
    Exch-Disp20 (SS)    =     0.000000000000 [Eh]
    Exch-Disp20 (OS)    =     0.000000000000 [Eh]

    SAPT Results
  --------------------------------------------------------------------------------------------------------
    Electrostatics                 -0.02559176 [mEh]      -0.01605907 [kcal/mol]      -0.06719114 [kJ/mol]
      Elst10,r                     -0.02559176 [mEh]      -0.01605907 [kcal/mol]      -0.06719114 [kJ/mol]

    Exchange                       -0.00000000 [mEh]      -0.00000000 [kcal/mol]      -0.00000000 [kJ/mol]
      Exch10                       -0.00000000 [mEh]      -0.00000000 [kcal/mol]      -0.00000000 [kJ/mol]
      Exch10(S^2)                  -0.00000000 [mEh]      -0.00000000 [kcal/mol]      -0.00000000 [kJ/mol]

    Induction                      -0.00003618 [mEh]      -0.00002270 [kcal/mol]      -0.00009498 [kJ/mol]
      Ind20,r                      -0.00003160 [mEh]      -0.00001983 [kcal/mol]      -0.00008297 [kJ/mol]
      Exch-Ind20,r                  0.00000000 [mEh]       0.00000000 [kcal/mol]       0.00000000 [kJ/mol]
      delta HF,r (2)               -0.00000458 [mEh]      -0.00000287 [kcal/mol]      -0.00001201 [kJ/mol]

    Dispersion                     -0.00021426 [mEh]      -0.00013445 [kcal/mol]      -0.00056254 [kJ/mol]
      Disp20                       -0.00021426 [mEh]      -0.00013445 [kcal/mol]      -0.00056254 [kJ/mol]
      Exch-Disp20                   0.00000000 [mEh]       0.00000000 [kcal/mol]       0.00000000 [kJ/mol]
      Disp20 (SS)                  -0.00010713 [mEh]      -0.00006723 [kcal/mol]      -0.00028127 [kJ/mol]
      Disp20 (OS)                  -0.00010713 [mEh]      -0.00006723 [kcal/mol]      -0.00028127 [kJ/mol]
      Exch-Disp20 (SS)              0.00000000 [mEh]       0.00000000 [kcal/mol]       0.00000000 [kJ/mol]
      Exch-Disp20 (OS)              0.00000000 [mEh]       0.00000000 [kcal/mol]       0.00000000 [kJ/mol]

  Total HF                         -0.02562793 [mEh]      -0.01608177 [kcal/mol]      -0.06728612 [kJ/mol]
  Total SAPT0                      -0.02584219 [mEh]      -0.01621622 [kcal/mol]      -0.06784867 [kJ/mol]

  Special recipe for scaled SAPT0 (see Manual):
    Electrostatics sSAPT0          -0.02559176 [mEh]      -0.01605907 [kcal/mol]      -0.06719114 [kJ/mol]
    Exchange sSAPT0                -0.00000000 [mEh]      -0.00000000 [kcal/mol]      -0.00000000 [kJ/mol]
    Induction sSAPT0               -0.00003618 [mEh]      -0.00002270 [kcal/mol]      -0.00009498 [kJ/mol]
    Dispersion sSAPT0              -0.00021426 [mEh]      -0.00013445 [kcal/mol]      -0.00056254 [kJ/mol]
  Total sSAPT0                     -0.02584219 [mEh]      -0.01621622 [kcal/mol]      -0.06784867 [kJ/mol]
  --------------------------------------------------------------------------------------------------------

*** tstop() called on ds1 at Tue Sep 14 16:53:56 2021
Module time:
	user time   =      43.93 seconds =       0.73 minutes
	system time =       3.76 seconds =       0.06 minutes
	total time  =         10 seconds =       0.17 minutes
Total time:
	user time   =      99.35 seconds =       1.66 minutes
	system time =       4.98 seconds =       0.08 minutes
	total time  =         22 seconds =       0.37 minutes


Warning! sapt0 does not have an associated derived wavefunction.The returned wavefunction is the dimer SCF wavefunction.


    Psi4 stopped on: Tuesday, 14 September 2021 04:53PM
    Psi4 wall time for execution: 0:00:21.27

*** Psi4 exiting successfully. Buy a developer a beer!
