
    -----------------------------------------------------------------------
          Psi4: An Open-Source Ab Initio Electronic Structure Package
                               Psi4 1.4rc3

                         Git: Rev {HEAD} 080dba6


    D. G. A. Smith, L. A. Burns, A. C. Simmonett, R. M. Parrish,
    M. C. Schieber, R. Galvelis, P. Kraus, H. Kruse, R. Di Remigio,
    A. Alenaizan, A. M. James, S. Lehtola, J. P. Misiewicz, M. Scheurer,
    R. A. Shaw, J. B. Schriber, Y. Xie, Z. L. Glick, D. A. Sirianni,
    J. S. O'Brien, J. M. Waldrop, A. Kumar, E. G. Hohenstein,
    B. P. Pritchard, B. R. Brooks, H. F. Schaefer III, A. Yu. Sokolov,
    K. Patkowski, A. E. DePrince III, U. Bozkaya, R. A. King,
    F. A. Evangelista, J. M. Turney, T. D. Crawford, C. D. Sherrill,
    J. Chem. Phys. 152(18) 184108 (2020). https://doi.org/10.1063/5.0006002

                            Additional Code Authors
    E. T. Seidl, C. L. Janssen, E. F. Valeev, M. L. Leininger,
    J. F. Gonthier, R. M. Richard, H. R. McAlexander, M. Saitow, X. Wang,
    P. Verma, and M. H. Lechner

             Previous Authors, Complete List of Code Contributors,
                       and Citations for Specific Modules
    https://github.com/psi4/psi4/blob/master/codemeta.json
    https://github.com/psi4/psi4/graphs/contributors
    http://psicode.org/psi4manual/master/introduction.html#citing-psifour

    -----------------------------------------------------------------------


    Psi4 started on: Tuesday, 14 September 2021 04:46PM

    Process ID: 1043
    Host:       ds1
    PSIDATADIR: /theoryfs2/ds/csargent/miniconda3/envs/cle/share/psi4
    Memory:     500.0 MiB
    Threads:    6

  ==> Input File <==

--------------------------------------------------------------------------
# PSI4 file produced by CrystaLattE

# Generated from:               imidazole.xyz
# Psithon input for N-mer:      2mer-0+278
# Number of atoms per monomer:  [9, 9]
# Number of replicas:           1
# COM priority:                 3.959380813146e-05
# Minimum COM separations:      15.526
# Separation priority:          9.426809174831e-05
# Minimum monomer separations:  11.627
# Cutoff priority:              4.290286430556e-06
# Nuclear repulsion energy:     372.39963697211806

memory 7 GB

molecule Dimer_0_278 {
  N           -4.29309621      -3.06837431       5.30516231
  N           -2.15847371      -2.92627296       1.72037448
  H           -0.02545587      -6.35903575       2.22046452
  H           -2.68566968      -6.53260241       6.61445954
  H           -4.74388423      -0.00609006       2.75615968
  H           -1.41045540      -2.24723147       0.00000000
  C           -1.43737991      -5.07504848       2.94065891
  C           -2.76900782      -5.14609916       5.13522880
  C           -3.85955036      -1.77728198       3.21093411
--
  N           -8.33026296     -16.32846099      27.67488576
  N          -10.46488546     -16.47056235      31.25967360
  H          -12.59790331     -13.03779955      30.75958356
  H           -9.93768949     -12.86423289      26.36558854
  H           -7.87947495     -19.39074524      30.22388840
  H          -11.21290377     -17.14960383      32.98004808
  C          -11.18597926     -14.32178682      30.03938916
  C           -9.85435135     -14.25073614      27.84481927
  C           -8.76380882     -17.61955332      29.76911396
units = au
no_com
no_reorient
}

set {
  e_convergence 10
  d_convergence 10
  scf_type df
  mp2_type df
  cc_type df
  freeze_core true
}

energy('sapt0/aug-cc-pvdz')

--------------------------------------------------------------------------

  Memory set to   6.519 GiB by Python driver.

Scratch directory: /scratch/csargent/psi4.31446.79897/

Scratch directory: /scratch/csargent/psi4.31446.79897/

  //>>>>>>>>>>>>>>>>>>>>>>>>>>>>>>>>>>>//
  //              Dimer HF             //
  //<<<<<<<<<<<<<<<<<<<<<<<<<<<<<<<<<<<//


*** tstart() called on ds1
*** at Tue Sep 14 16:46:24 2021

   => Loading Basis Set <=

    Name: AUG-CC-PVDZ
    Role: ORBITAL
    Keyword: BASIS
    atoms 1-2, 10-11 entry N          line   218 file /theoryfs2/ds/csargent/miniconda3/envs/cle/share/psi4/basis/aug-cc-pvdz.gbs
    atoms 3-6, 12-15 entry H          line    40 file /theoryfs2/ds/csargent/miniconda3/envs/cle/share/psi4/basis/aug-cc-pvdz.gbs
    atoms 7-9, 16-18 entry C          line   182 file /theoryfs2/ds/csargent/miniconda3/envs/cle/share/psi4/basis/aug-cc-pvdz.gbs


         ---------------------------------------------------------
                                   SCF
               by Justin Turney, Rob Parrish, Andy Simmonett
                          and Daniel G. A. Smith
                              RHF Reference
                        6 Threads,   6675 MiB Core
         ---------------------------------------------------------

  ==> Geometry <==

    Molecular point group: c1
    Full point group: C1

    Geometry (in Bohr), charge = 0, multiplicity = 1:

       Center              X                  Y                   Z               Mass
    ------------   -----------------  -----------------  -----------------  -----------------
         N           -4.293096210000    -3.068374310000     5.305162310000    14.003074004430
         N           -2.158473710000    -2.926272960000     1.720374480000    14.003074004430
         H           -0.025455870000    -6.359035750000     2.220464520000     1.007825032230
         H           -2.685669680000    -6.532602410000     6.614459540000     1.007825032230
         H           -4.743884230000    -0.006090060000     2.756159680000     1.007825032230
         H           -1.410455400000    -2.247231470000     0.000000000000     1.007825032230
         C           -1.437379910000    -5.075048480000     2.940658910000    12.000000000000
         C           -2.769007820000    -5.146099160000     5.135228800000    12.000000000000
         C           -3.859550360000    -1.777281980000     3.210934110000    12.000000000000
         N           -8.330262960000   -16.328460990000    27.674885760000    14.003074004430
         N          -10.464885460000   -16.470562350000    31.259673600000    14.003074004430
         H          -12.597903310000   -13.037799550000    30.759583560000     1.007825032230
         H           -9.937689490000   -12.864232890000    26.365588540000     1.007825032230
         H           -7.879474950000   -19.390745240000    30.223888400000     1.007825032230
         H          -11.212903770000   -17.149603830000    32.980048080000     1.007825032230
         C          -11.185979260000   -14.321786820000    30.039389160000    12.000000000000
         C           -9.854351350000   -14.250736140000    27.844819270000    12.000000000000
         C           -8.763808820000   -17.619553320000    29.769113960000    12.000000000000

  Running in c1 symmetry.

  Rotational constants: A =      0.09512  B =      0.00071  C =      0.00071 [cm^-1]
  Rotational constants: A =   2851.55952  B =     21.26226  C =     21.23529 [MHz]
  Nuclear repulsion =  372.399636994848947

  Charge       = 0
  Multiplicity = 1
  Electrons    = 72
  Nalpha       = 36
  Nbeta        = 36

  ==> Algorithm <==

  SCF Algorithm Type is DF.
  DIIS enabled.
  MOM disabled.
  Fractional occupation disabled.
  Guess Type is SAD.
  Energy threshold   = 1.00e-10
  Density threshold  = 1.00e-10
  Integral threshold = 1.00e-12

  ==> Primary Basis <==

  Basis Set: AUG-CC-PVDZ
    Blend: AUG-CC-PVDZ
    Number of shells: 130
    Number of basis functions: 302
    Number of Cartesian functions: 322
    Spherical Harmonics?: true
    Max angular momentum: 2

   => Loading Basis Set <=

    Name: (AUG-CC-PVDZ AUX)
    Role: JKFIT
    Keyword: DF_BASIS_SCF
    atoms 1-2, 10-11 entry N          line   212 file /theoryfs2/ds/csargent/miniconda3/envs/cle/share/psi4/basis/aug-cc-pvdz-jkfit.gbs
    atoms 3-6, 12-15 entry H          line    70 file /theoryfs2/ds/csargent/miniconda3/envs/cle/share/psi4/basis/aug-cc-pvdz-jkfit.gbs
    atoms 7-9, 16-18 entry C          line   154 file /theoryfs2/ds/csargent/miniconda3/envs/cle/share/psi4/basis/aug-cc-pvdz-jkfit.gbs

  ==> Integral Setup <==

  ==> DiskDFJK: Density-Fitted J/K Matrices <==

    J tasked:                  Yes
    K tasked:                  Yes
    wK tasked:                  No
    OpenMP threads:              6
    Integrals threads:           6
    Memory [MiB]:             5006
    Algorithm:                Core
    Integral Cache:           SAVE
    Schwarz Cutoff:          1E-12
    Fitting Condition:       1E-10

   => Auxiliary Basis Set <=

  Basis Set: (AUG-CC-PVDZ AUX)
    Blend: AUG-CC-PVDZ-JKFIT
    Number of shells: 376
    Number of basis functions: 1116
    Number of Cartesian functions: 1290
    Spherical Harmonics?: true
    Max angular momentum: 3

  Minimum eigenvalue in the overlap matrix is 2.1656252383E-05.
  Reciprocal condition number of the overlap matrix is 1.8242185140E-06.
    Using symmetric orthogonalization.

  ==> Pre-Iterations <==

  SCF Guess: Superposition of Atomic Densities via on-the-fly atomic UHF (no occupation information).

   -------------------------
    Irrep   Nso     Nmo
   -------------------------
     A        302     302
   -------------------------
    Total     302     302
   -------------------------

  ==> Iterations <==

                           Total Energy        Delta E     RMS |[F,P]|

   @DF-RHF iter SAD:  -449.11714338844303   -4.49117e+02   0.00000e+00
   @DF-RHF iter   1:  -449.39581579844122   -2.78672e-01   2.30698e-03 DIIS
   @DF-RHF iter   2:  -449.61031498492997   -2.14499e-01   1.31352e-03 DIIS
   @DF-RHF iter   3:  -449.68328367775479   -7.29687e-02   2.46770e-04 DIIS
   @DF-RHF iter   4:  -449.68666552189546   -3.38184e-03   1.13419e-04 DIIS
   @DF-RHF iter   5:  -449.68727324904796   -6.07727e-04   1.78872e-05 DIIS
   @DF-RHF iter   6:  -449.68730794484674   -3.46958e-05   7.95522e-06 DIIS
   @DF-RHF iter   7:  -449.68731412509896   -6.18025e-06   3.10781e-06 DIIS
   @DF-RHF iter   8:  -449.68731559021967   -1.46512e-06   1.10002e-06 DIIS
   @DF-RHF iter   9:  -449.68731581196096   -2.21741e-07   2.66062e-07 DIIS
   @DF-RHF iter  10:  -449.68731582305332   -1.10924e-08   1.03808e-07 DIIS
   @DF-RHF iter  11:  -449.68731582471162   -1.65829e-09   4.62545e-08 DIIS
   @DF-RHF iter  12:  -449.68731582501641   -3.04794e-10   1.37364e-08 DIIS
   @DF-RHF iter  13:  -449.68731582504228   -2.58638e-11   5.07899e-09 DIIS
   @DF-RHF iter  14:  -449.68731582504518   -2.89901e-12   2.24088e-09 DIIS
   @DF-RHF iter  15:  -449.68731582504603   -8.52651e-13   7.46686e-10 DIIS
   @DF-RHF iter  16:  -449.68731582504620   -1.70530e-13   3.32720e-10 DIIS
   @DF-RHF iter  17:  -449.68731582504660   -3.97904e-13   6.68844e-11 DIIS
  Energy and wave function converged.


  ==> Post-Iterations <==

    Orbital Energies [Eh]
    ---------------------

    Doubly Occupied:

       1A    -15.635645     2A    -15.635645     3A    -15.549736
       4A    -15.549736     5A    -11.299468     6A    -11.299468
       7A    -11.261633     8A    -11.261633     9A    -11.244084
      10A    -11.244084    11A     -1.351405    12A     -1.351405
      13A     -1.167628    14A     -1.167628    15A     -1.010601
      16A     -1.010601    17A     -0.822933    18A     -0.822933
      19A     -0.802217    20A     -0.802217    21A     -0.759207
      22A     -0.759207    23A     -0.608601    24A     -0.608601
      25A     -0.602502    26A     -0.602502    27A     -0.600441
      28A     -0.600441    29A     -0.569388    30A     -0.569388
      31A     -0.433979    32A     -0.433979    33A     -0.398974
      34A     -0.398974    35A     -0.319182    36A     -0.319182

    Virtual:

      37A      0.026495    38A      0.026502    39A      0.042881
      40A      0.042948    41A      0.050555    42A      0.052792
      43A      0.061844    44A      0.065691    45A      0.090426
      46A      0.090427    47A      0.102777    48A      0.102792
      49A      0.122092    50A      0.122274    51A      0.127154
      52A      0.127154    53A      0.134094    54A      0.135296
      55A      0.135612    56A      0.135854    57A      0.142537
      58A      0.142542    59A      0.157951    60A      0.158149
      61A      0.159805    62A      0.159869    63A      0.169923
      64A      0.179403    65A      0.179579    66A      0.179722
      67A      0.188463    68A      0.188474    69A      0.213004
      70A      0.213005    71A      0.221716    72A      0.221799
      73A      0.233758    74A      0.233973    75A      0.242854
      76A      0.242862    77A      0.262867    78A      0.263250
      79A      0.268768    80A      0.270183    81A      0.279444
      82A      0.279457    83A      0.303109    84A      0.303191
      85A      0.315797    86A      0.315984    87A      0.339738
      88A      0.339944    89A      0.362800    90A      0.363197
      91A      0.371959    92A      0.372383    93A      0.380462
      94A      0.382100    95A      0.389679    96A      0.389683
      97A      0.398120    98A      0.399104    99A      0.416985
     100A      0.420872   101A      0.430526   102A      0.430737
     103A      0.453507   104A      0.453513   105A      0.467807
     106A      0.467808   107A      0.482578   108A      0.482656
     109A      0.487877   110A      0.487879   111A      0.489678
     112A      0.489798   113A      0.553142   114A      0.553164
     115A      0.557625   116A      0.558133   117A      0.569371
     118A      0.570244   119A      0.577885   120A      0.577896
     121A      0.595677   122A      0.595699   123A      0.600396
     124A      0.600398   125A      0.617635   126A      0.617636
     127A      0.637973   128A      0.638172   129A      0.653886
     130A      0.654222   131A      0.670697   132A      0.670979
     133A      0.672851   134A      0.672882   135A      0.679375
     136A      0.679893   137A      0.685482   138A      0.685512
     139A      0.716151   140A      0.716198   141A      0.726818
     142A      0.727621   143A      0.742726   144A      0.742853
     145A      0.764189   146A      0.764244   147A      0.768819
     148A      0.768986   149A      0.792028   150A      0.792895
     151A      0.795005   152A      0.795010   153A      0.811140
     154A      0.811302   155A      0.861400   156A      0.862545
     157A      0.872928   158A      0.872964   159A      0.887118
     160A      0.887496   161A      0.891422   162A      0.891424
     163A      0.955826   164A      0.955826   165A      0.978362
     166A      0.978439   167A      0.999799   168A      0.999877
     169A      1.012214   170A      1.012219   171A      1.018925
     172A      1.018927   173A      1.032105   174A      1.032149
     175A      1.078690   176A      1.079016   177A      1.085976
     178A      1.086024   179A      1.128060   180A      1.129052
     181A      1.141969   182A      1.142141   183A      1.150977
     184A      1.151114   185A      1.168690   186A      1.168716
     187A      1.218942   188A      1.218945   189A      1.262170
     190A      1.262224   191A      1.303963   192A      1.304279
     193A      1.386448   194A      1.386460   195A      1.399612
     196A      1.399682   197A      1.452523   198A      1.452734
     199A      1.504672   200A      1.504937   201A      1.519876
     202A      1.519880   203A      1.575103   204A      1.575650
     205A      1.575652   206A      1.576726   207A      1.597872
     208A      1.597875   209A      1.653643   210A      1.653651
     211A      1.672508   212A      1.673739   213A      1.706628
     214A      1.707077   215A      1.725878   216A      1.725895
     217A      1.784140   218A      1.784140   219A      1.800540
     220A      1.800677   221A      1.808645   222A      1.808665
     223A      1.866346   224A      1.866556   225A      1.882853
     226A      1.882960   227A      1.925850   228A      1.925851
     229A      1.966448   230A      1.966482   231A      2.023460
     232A      2.023477   233A      2.026765   234A      2.027063
     235A      2.074403   236A      2.074545   237A      2.108461
     238A      2.108658   239A      2.128260   240A      2.128353
     241A      2.137430   242A      2.137602   243A      2.170161
     244A      2.170189   245A      2.180254   246A      2.180324
     247A      2.268558   248A      2.268571   249A      2.277253
     250A      2.277670   251A      2.302345   252A      2.302370
     253A      2.333504   254A      2.333560   255A      2.419286
     256A      2.419287   257A      2.498325   258A      2.498338
     259A      2.515347   260A      2.515717   261A      2.546726
     262A      2.546732   263A      2.587224   264A      2.587252
     265A      2.635235   266A      2.635313   267A      2.735518
     268A      2.735812   269A      2.748491   270A      2.748493
     271A      2.768595   272A      2.768597   273A      2.795626
     274A      2.795631   275A      2.804831   276A      2.805060
     277A      2.839081   278A      2.839117   279A      2.868658
     280A      2.868659   281A      2.954141   282A      2.954283
     283A      2.982329   284A      2.982352   285A      3.052717
     286A      3.052722   287A      3.071166   288A      3.071711
     289A      3.200378   290A      3.200890   291A      3.210245
     292A      3.210338   293A      3.336266   294A      3.336268
     295A      3.355829   296A      3.356334   297A      3.519950
     298A      3.520149   299A      3.769770   300A      3.769801
     301A      4.110320   302A      4.110778

    Final Occupation by Irrep:
              A
    DOCC [    36 ]

  @DF-RHF Final Energy:  -449.68731582504660

   => Energetics <=

    Nuclear Repulsion Energy =            372.3996369948489473
    One-Electron Energy =               -1346.4234112769138392
    Two-Electron Energy =                 524.3364584570183524
    Total Energy =                       -449.6873158250465394

Computation Completed


Properties will be evaluated at   0.000000,   0.000000,   0.000000 [a0]

Properties computed using the SCF density matrix

  Nuclear Dipole Moment: [e a0]
     X:  -454.4409      Y:  -698.2861      Z:  1187.2817

  Electronic Dipole Moment: [e a0]
     X:   454.4409      Y:   698.2861      Z: -1187.2817

  Dipole Moment: [e a0]
     X:     0.0000      Y:     0.0000      Z:    -0.0000     Total:     0.0000

  Dipole Moment: [D]
     X:     0.0000      Y:     0.0000      Z:    -0.0000     Total:     0.0000


*** tstop() called on ds1 at Tue Sep 14 16:46:29 2021
Module time:
	user time   =      23.53 seconds =       0.39 minutes
	system time =       0.58 seconds =       0.01 minutes
	total time  =          5 seconds =       0.08 minutes
Total time:
	user time   =      23.53 seconds =       0.39 minutes
	system time =       0.58 seconds =       0.01 minutes
	total time  =          5 seconds =       0.08 minutes

  //>>>>>>>>>>>>>>>>>>>>>>>>>>>>>>>>>>>//
  //            Monomer A HF           //
  //<<<<<<<<<<<<<<<<<<<<<<<<<<<<<<<<<<<//


*** tstart() called on ds1
*** at Tue Sep 14 16:46:29 2021

   => Loading Basis Set <=

    Name: AUG-CC-PVDZ
    Role: ORBITAL
    Keyword: BASIS
    atoms 1-2, 10-11 entry N          line   218 file /theoryfs2/ds/csargent/miniconda3/envs/cle/share/psi4/basis/aug-cc-pvdz.gbs
    atoms 3-6, 12-15 entry H          line    40 file /theoryfs2/ds/csargent/miniconda3/envs/cle/share/psi4/basis/aug-cc-pvdz.gbs
    atoms 7-9, 16-18 entry C          line   182 file /theoryfs2/ds/csargent/miniconda3/envs/cle/share/psi4/basis/aug-cc-pvdz.gbs


         ---------------------------------------------------------
                                   SCF
               by Justin Turney, Rob Parrish, Andy Simmonett
                          and Daniel G. A. Smith
                              RHF Reference
                        6 Threads,   6675 MiB Core
         ---------------------------------------------------------

  ==> Geometry <==

    Molecular point group: c1
    Full point group: C1

    Geometry (in Bohr), charge = 0, multiplicity = 1:

       Center              X                  Y                   Z               Mass
    ------------   -----------------  -----------------  -----------------  -----------------
         N           -4.293096210000    -3.068374310000     5.305162310000    14.003074004430
         N           -2.158473710000    -2.926272960000     1.720374480000    14.003074004430
         H           -0.025455870000    -6.359035750000     2.220464520000     1.007825032230
         H           -2.685669680000    -6.532602410000     6.614459540000     1.007825032230
         H           -4.743884230000    -0.006090060000     2.756159680000     1.007825032230
         H           -1.410455400000    -2.247231470000     0.000000000000     1.007825032230
         C           -1.437379910000    -5.075048480000     2.940658910000    12.000000000000
         C           -2.769007820000    -5.146099160000     5.135228800000    12.000000000000
         C           -3.859550360000    -1.777281980000     3.210934110000    12.000000000000
      Gh(N)          -8.330262960000   -16.328460990000    27.674885760000    14.003074004430
      Gh(N)         -10.464885460000   -16.470562350000    31.259673600000    14.003074004430
      Gh(H)         -12.597903310000   -13.037799550000    30.759583560000     1.007825032230
      Gh(H)          -9.937689490000   -12.864232890000    26.365588540000     1.007825032230
      Gh(H)          -7.879474950000   -19.390745240000    30.223888400000     1.007825032230
      Gh(H)         -11.212903770000   -17.149603830000    32.980048080000     1.007825032230
      Gh(C)         -11.185979260000   -14.321786820000    30.039389160000    12.000000000000
      Gh(C)          -9.854351350000   -14.250736140000    27.844819270000    12.000000000000
      Gh(C)          -8.763808820000   -17.619553320000    29.769113960000    12.000000000000

  Running in c1 symmetry.

  Rotational constants: A =      0.09512  B =      0.00071  C =      0.00071 [cm^-1]
  Rotational constants: A =   2851.55952  B =     21.26226  C =     21.23529 [MHz]
  Nuclear repulsion =  164.086695994184396

  Charge       = 0
  Multiplicity = 1
  Electrons    = 36
  Nalpha       = 18
  Nbeta        = 18

  ==> Algorithm <==

  SCF Algorithm Type is DF.
  DIIS enabled.
  MOM disabled.
  Fractional occupation disabled.
  Guess Type is SAD.
  Energy threshold   = 1.00e-10
  Density threshold  = 1.00e-10
  Integral threshold = 1.00e-12

  ==> Primary Basis <==

  Basis Set: AUG-CC-PVDZ
    Blend: AUG-CC-PVDZ
    Number of shells: 130
    Number of basis functions: 302
    Number of Cartesian functions: 322
    Spherical Harmonics?: true
    Max angular momentum: 2

   => Loading Basis Set <=

    Name: (AUG-CC-PVDZ AUX)
    Role: JKFIT
    Keyword: DF_BASIS_SCF
    atoms 1-2, 10-11 entry N          line   212 file /theoryfs2/ds/csargent/miniconda3/envs/cle/share/psi4/basis/aug-cc-pvdz-jkfit.gbs
    atoms 3-6, 12-15 entry H          line    70 file /theoryfs2/ds/csargent/miniconda3/envs/cle/share/psi4/basis/aug-cc-pvdz-jkfit.gbs
    atoms 7-9, 16-18 entry C          line   154 file /theoryfs2/ds/csargent/miniconda3/envs/cle/share/psi4/basis/aug-cc-pvdz-jkfit.gbs

  ==> Integral Setup <==

  ==> DiskDFJK: Density-Fitted J/K Matrices <==

    J tasked:                  Yes
    K tasked:                  Yes
    wK tasked:                  No
    OpenMP threads:              6
    Integrals threads:           6
    Memory [MiB]:             5006
    Algorithm:                Core
    Integral Cache:           LOAD
    Schwarz Cutoff:          1E-12
    Fitting Condition:       1E-10

   => Auxiliary Basis Set <=

  Basis Set: (AUG-CC-PVDZ AUX)
    Blend: AUG-CC-PVDZ-JKFIT
    Number of shells: 376
    Number of basis functions: 1116
    Number of Cartesian functions: 1290
    Spherical Harmonics?: true
    Max angular momentum: 3

  Minimum eigenvalue in the overlap matrix is 2.1656252383E-05.
  Reciprocal condition number of the overlap matrix is 1.8242185140E-06.
    Using symmetric orthogonalization.

  ==> Pre-Iterations <==

  SCF Guess: Superposition of Atomic Densities via on-the-fly atomic UHF (no occupation information).

   -------------------------
    Irrep   Nso     Nmo
   -------------------------
     A        302     302
   -------------------------
    Total     302     302
   -------------------------

  ==> Iterations <==

                           Total Energy        Delta E     RMS |[F,P]|

   @DF-RHF iter SAD:  -224.55857169689756   -2.24559e+02   0.00000e+00
   @DF-RHF iter   1:  -224.69806465343711   -1.39493e-01   1.63067e-03 DIIS
   @DF-RHF iter   2:  -224.80532028181969   -1.07256e-01   9.27384e-04 DIIS
   @DF-RHF iter   3:  -224.84168819081728   -3.63679e-02   1.74019e-04 DIIS
   @DF-RHF iter   4:  -224.84337344303788   -1.68525e-03   7.98972e-05 DIIS
   @DF-RHF iter   5:  -224.84367502377438   -3.01581e-04   1.26452e-05 DIIS
   @DF-RHF iter   6:  -224.84369236080917   -1.73370e-05   5.61871e-06 DIIS
   @DF-RHF iter   7:  -224.84369544887846   -3.08807e-06   2.19503e-06 DIIS
   @DF-RHF iter   8:  -224.84369618079700   -7.31919e-07   7.77587e-07 DIIS
   @DF-RHF iter   9:  -224.84369629159113   -1.10794e-07   1.87961e-07 DIIS
   @DF-RHF iter  10:  -224.84369629712728   -5.53615e-09   7.33126e-08 DIIS
   @DF-RHF iter  11:  -224.84369629795350   -8.26219e-10   3.26918e-08 DIIS
   @DF-RHF iter  12:  -224.84369629810578   -1.52284e-10   9.70884e-09 DIIS
   @DF-RHF iter  13:  -224.84369629811846   -1.26761e-11   3.58840e-09 DIIS
   @DF-RHF iter  14:  -224.84369629811985   -1.39266e-12   1.58275e-09 DIIS
   @DF-RHF iter  15:  -224.84369629812053   -6.82121e-13   5.27556e-10 DIIS
   @DF-RHF iter  16:  -224.84369629812059   -5.68434e-14   2.34517e-10 DIIS
   @DF-RHF iter  17:  -224.84369629812048    1.13687e-13   4.71137e-11 DIIS
  Energy and wave function converged.


  ==> Post-Iterations <==

    Orbital Energies [Eh]
    ---------------------

    Doubly Occupied:

       1A    -15.637071     2A    -15.551216     3A    -11.300916
       4A    -11.263160     5A    -11.245653     6A     -1.352867
       7A     -1.169098     8A     -1.012098     9A     -0.824390
      10A     -0.803731    11A     -0.760666    12A     -0.610096
      13A     -0.603958    14A     -0.601922    15A     -0.570942
      16A     -0.435483    17A     -0.400464    18A     -0.320685

    Virtual:

      19A      0.024151    20A      0.025388    21A      0.041448
      22A      0.041735    23A      0.044989    24A      0.050231
      25A      0.061704    26A      0.069464    27A      0.078064
      28A      0.087962    29A      0.089096    30A      0.099067
      31A      0.101396    32A      0.120803    33A      0.125571
      34A      0.126087    35A      0.126834    36A      0.128572
      37A      0.128751    38A      0.133619    39A      0.133816
      40A      0.135517    41A      0.139850    42A      0.140942
      43A      0.156425    44A      0.158338    45A      0.158803
      46A      0.172622    47A      0.178189    48A      0.187224
      49A      0.193956    50A      0.209165    51A      0.211100
      52A      0.211559    53A      0.214200    54A      0.220259
      55A      0.222118    56A      0.224202    57A      0.232344
      58A      0.234753    59A      0.241408    60A      0.261624
      61A      0.267810    62A      0.273653    63A      0.277911
      64A      0.301126    65A      0.301780    66A      0.308073
      67A      0.314445    68A      0.320892    69A      0.338199
      70A      0.361445    71A      0.361733    72A      0.370725
      73A      0.376931    74A      0.380236    75A      0.388293
      76A      0.395012    77A      0.397181    78A      0.417217
      79A      0.428869    80A      0.429456    81A      0.436804
      82A      0.442128    83A      0.450563    84A      0.452059
      85A      0.453614    86A      0.466350    87A      0.469852
      88A      0.481234    89A      0.482699    90A      0.486284
      91A      0.488158    92A      0.519022    93A      0.522195
      94A      0.537586    95A      0.539718    96A      0.544878
      97A      0.551714    98A      0.556414    99A      0.557367
     100A      0.568316   101A      0.576474   102A      0.580930
     103A      0.589166   104A      0.594250   105A      0.598944
     106A      0.608243   107A      0.613567   108A      0.616081
     109A      0.619933   110A      0.636547   111A      0.641457
     112A      0.652507   113A      0.669282   114A      0.671338
     115A      0.678210   116A      0.679229   117A      0.683875
     118A      0.685538   119A      0.712930   120A      0.714703
     121A      0.725800   122A      0.737851   123A      0.741248
     124A      0.757653   125A      0.762701   126A      0.767407
     127A      0.790957   128A      0.793606   129A      0.799828
     130A      0.809750   131A      0.812075   132A      0.813941
     133A      0.825051   134A      0.838395   135A      0.860274
     136A      0.861574   137A      0.871430   138A      0.885790
     139A      0.888217   140A      0.889823   141A      0.911420
     142A      0.921326   143A      0.928586   144A      0.954351
     145A      0.970382   146A      0.976969   147A      0.993467
     148A      0.998362   149A      1.010706   150A      1.017140
     151A      1.017405   152A      1.030679   153A      1.060797
     154A      1.077368   155A      1.080202   156A      1.084554
     157A      1.105337   158A      1.117662   159A      1.127028
     160A      1.134019   161A      1.140508   162A      1.149569
     163A      1.167170   164A      1.172686   165A      1.175665
     166A      1.199167   167A      1.212191   168A      1.217445
     169A      1.260722   170A      1.279704   171A      1.292262
     172A      1.298663   173A      1.302552   174A      1.314193
     175A      1.319735   176A      1.349255   177A      1.385029
     178A      1.385684   179A      1.398151   180A      1.451153
     181A      1.496528   182A      1.503301   183A      1.517437
     184A      1.518410   185A      1.542980   186A      1.574127
     187A      1.574354   188A      1.596381   189A      1.652159
     190A      1.662582   191A      1.671561   192A      1.705304
     193A      1.724478   194A      1.782643   195A      1.799073
     196A      1.807064   197A      1.864959   198A      1.881484
     199A      1.924392   200A      1.964994   201A      2.022006
     202A      2.025438   203A      2.041510   204A      2.072987
     205A      2.102720   206A      2.107063   207A      2.121061
     208A      2.126763   209A      2.133132   210A      2.135973
     211A      2.151242   212A      2.168671   213A      2.178817
     214A      2.187037   215A      2.231416   216A      2.254593
     217A      2.267082   218A      2.275976   219A      2.300924
     220A      2.310464   221A      2.328951   222A      2.332085
     223A      2.378487   224A      2.407121   225A      2.415191
     226A      2.417758   227A      2.457562   228A      2.472584
     229A      2.495697   230A      2.496921   231A      2.514042
     232A      2.527541   233A      2.545345   234A      2.547295
     235A      2.578773   236A      2.585744   237A      2.601728
     238A      2.633769   239A      2.698000   240A      2.734106
     241A      2.747025   242A      2.767092   243A      2.792080
     244A      2.794149   245A      2.803451   246A      2.830914
     247A      2.837645   248A      2.867213   249A      2.897568
     250A      2.935197   251A      2.951262   252A      2.952748
     253A      2.980863   254A      3.045305   255A      3.051201
     256A      3.069926   257A      3.078084   258A      3.133644
     259A      3.161440   260A      3.184887   261A      3.199180
     262A      3.208797   263A      3.215348   264A      3.334816
     265A      3.342733   266A      3.354591   267A      3.356584
     268A      3.364807   269A      3.460469   270A      3.496371
     271A      3.518562   272A      3.571351   273A      3.610876
     274A      3.709064   275A      3.728602   276A      3.768296
     277A      3.780243   278A      3.799953   279A      3.859865
     280A      3.872582   281A      4.005786   282A      4.109050
     283A      4.214584   284A      4.638676   285A      4.640729
     286A      4.697939   287A      4.773642   288A      4.881923
     289A      5.023330   290A      5.256630   291A      5.375127
     292A      5.496800   293A      5.612330   294A      5.718114
     295A      5.885791   296A      6.091486   297A      6.200037
     298A     18.257517   299A     18.591901   300A     19.302554
     301A     25.313901   302A     25.455025

    Final Occupation by Irrep:
              A
    DOCC [    18 ]

  @DF-RHF Final Energy:  -224.84369629812048

   => Energetics <=

    Nuclear Repulsion Energy =            164.0866959941843959
    One-Electron Energy =                -628.9319566778577837
    Two-Electron Energy =                 240.0015643855528822
    Total Energy =                       -224.8436962981204772

Computation Completed


Properties will be evaluated at   0.000000,   0.000000,   0.000000 [a0]

Properties computed using the SCF density matrix

  Nuclear Dipole Moment: [e a0]
     X:  -102.4221      Y:  -129.0981      Z:   128.4908

  Electronic Dipole Moment: [e a0]
     X:   103.2259      Y:   129.2613      Z:  -129.8232

  Dipole Moment: [e a0]
     X:     0.8038      Y:     0.1633      Z:    -1.3324     Total:     1.5646

  Dipole Moment: [D]
     X:     2.0431      Y:     0.4150      Z:    -3.3867     Total:     3.9769


*** tstop() called on ds1 at Tue Sep 14 16:46:33 2021
Module time:
	user time   =      16.99 seconds =       0.28 minutes
	system time =       0.33 seconds =       0.01 minutes
	total time  =          4 seconds =       0.07 minutes
Total time:
	user time   =      40.83 seconds =       0.68 minutes
	system time =       0.91 seconds =       0.02 minutes
	total time  =          9 seconds =       0.15 minutes

  //>>>>>>>>>>>>>>>>>>>>>>>>>>>>>>>>>>>//
  //            Monomer B HF           //
  //<<<<<<<<<<<<<<<<<<<<<<<<<<<<<<<<<<<//


*** tstart() called on ds1
*** at Tue Sep 14 16:46:33 2021

   => Loading Basis Set <=

    Name: AUG-CC-PVDZ
    Role: ORBITAL
    Keyword: BASIS
    atoms 1-2, 10-11 entry N          line   218 file /theoryfs2/ds/csargent/miniconda3/envs/cle/share/psi4/basis/aug-cc-pvdz.gbs
    atoms 3-6, 12-15 entry H          line    40 file /theoryfs2/ds/csargent/miniconda3/envs/cle/share/psi4/basis/aug-cc-pvdz.gbs
    atoms 7-9, 16-18 entry C          line   182 file /theoryfs2/ds/csargent/miniconda3/envs/cle/share/psi4/basis/aug-cc-pvdz.gbs


         ---------------------------------------------------------
                                   SCF
               by Justin Turney, Rob Parrish, Andy Simmonett
                          and Daniel G. A. Smith
                              RHF Reference
                        6 Threads,   6675 MiB Core
         ---------------------------------------------------------

  ==> Geometry <==

    Molecular point group: c1
    Full point group: C1

    Geometry (in Bohr), charge = 0, multiplicity = 1:

       Center              X                  Y                   Z               Mass
    ------------   -----------------  -----------------  -----------------  -----------------
      Gh(N)          -4.293096210000    -3.068374310000     5.305162310000    14.003074004430
      Gh(N)          -2.158473710000    -2.926272960000     1.720374480000    14.003074004430
      Gh(H)          -0.025455870000    -6.359035750000     2.220464520000     1.007825032230
      Gh(H)          -2.685669680000    -6.532602410000     6.614459540000     1.007825032230
      Gh(H)          -4.743884230000    -0.006090060000     2.756159680000     1.007825032230
      Gh(H)          -1.410455400000    -2.247231470000     0.000000000000     1.007825032230
      Gh(C)          -1.437379910000    -5.075048480000     2.940658910000    12.000000000000
      Gh(C)          -2.769007820000    -5.146099160000     5.135228800000    12.000000000000
      Gh(C)          -3.859550360000    -1.777281980000     3.210934110000    12.000000000000
         N           -8.330262960000   -16.328460990000    27.674885760000    14.003074004430
         N          -10.464885460000   -16.470562350000    31.259673600000    14.003074004430
         H          -12.597903310000   -13.037799550000    30.759583560000     1.007825032230
         H           -9.937689490000   -12.864232890000    26.365588540000     1.007825032230
         H           -7.879474950000   -19.390745240000    30.223888400000     1.007825032230
         H          -11.212903770000   -17.149603830000    32.980048080000     1.007825032230
         C          -11.185979260000   -14.321786820000    30.039389160000    12.000000000000
         C           -9.854351350000   -14.250736140000    27.844819270000    12.000000000000
         C           -8.763808820000   -17.619553320000    29.769113960000    12.000000000000

  Running in c1 symmetry.

  Rotational constants: A =      0.09512  B =      0.00071  C =      0.00071 [cm^-1]
  Rotational constants: A =   2851.55952  B =     21.26226  C =     21.23529 [MHz]
  Nuclear repulsion =  164.086695882335846

  Charge       = 0
  Multiplicity = 1
  Electrons    = 36
  Nalpha       = 18
  Nbeta        = 18

  ==> Algorithm <==

  SCF Algorithm Type is DF.
  DIIS enabled.
  MOM disabled.
  Fractional occupation disabled.
  Guess Type is SAD.
  Energy threshold   = 1.00e-10
  Density threshold  = 1.00e-10
  Integral threshold = 1.00e-12

  ==> Primary Basis <==

  Basis Set: AUG-CC-PVDZ
    Blend: AUG-CC-PVDZ
    Number of shells: 130
    Number of basis functions: 302
    Number of Cartesian functions: 322
    Spherical Harmonics?: true
    Max angular momentum: 2

   => Loading Basis Set <=

    Name: (AUG-CC-PVDZ AUX)
    Role: JKFIT
    Keyword: DF_BASIS_SCF
    atoms 1-2, 10-11 entry N          line   212 file /theoryfs2/ds/csargent/miniconda3/envs/cle/share/psi4/basis/aug-cc-pvdz-jkfit.gbs
    atoms 3-6, 12-15 entry H          line    70 file /theoryfs2/ds/csargent/miniconda3/envs/cle/share/psi4/basis/aug-cc-pvdz-jkfit.gbs
    atoms 7-9, 16-18 entry C          line   154 file /theoryfs2/ds/csargent/miniconda3/envs/cle/share/psi4/basis/aug-cc-pvdz-jkfit.gbs

  ==> Integral Setup <==

  ==> DiskDFJK: Density-Fitted J/K Matrices <==

    J tasked:                  Yes
    K tasked:                  Yes
    wK tasked:                  No
    OpenMP threads:              6
    Integrals threads:           6
    Memory [MiB]:             5006
    Algorithm:                Core
    Integral Cache:           LOAD
    Schwarz Cutoff:          1E-12
    Fitting Condition:       1E-10

   => Auxiliary Basis Set <=

  Basis Set: (AUG-CC-PVDZ AUX)
    Blend: AUG-CC-PVDZ-JKFIT
    Number of shells: 376
    Number of basis functions: 1116
    Number of Cartesian functions: 1290
    Spherical Harmonics?: true
    Max angular momentum: 3

  Minimum eigenvalue in the overlap matrix is 2.1656252383E-05.
  Reciprocal condition number of the overlap matrix is 1.8242185140E-06.
    Using symmetric orthogonalization.

  ==> Pre-Iterations <==

  SCF Guess: Superposition of Atomic Densities via on-the-fly atomic UHF (no occupation information).

   -------------------------
    Irrep   Nso     Nmo
   -------------------------
     A        302     302
   -------------------------
    Total     302     302
   -------------------------

  ==> Iterations <==

                           Total Energy        Delta E     RMS |[F,P]|

   @DF-RHF iter SAD:  -224.55857168768151   -2.24559e+02   0.00000e+00
   @DF-RHF iter   1:  -224.69806465417233   -1.39493e-01   1.63067e-03 DIIS
   @DF-RHF iter   2:  -224.80532028221231   -1.07256e-01   9.27384e-04 DIIS
   @DF-RHF iter   3:  -224.84168819107566   -3.63679e-02   1.74019e-04 DIIS
   @DF-RHF iter   4:  -224.84337344330726   -1.68525e-03   7.98972e-05 DIIS
   @DF-RHF iter   5:  -224.84367502404737   -3.01581e-04   1.26452e-05 DIIS
   @DF-RHF iter   6:  -224.84369236108199   -1.73370e-05   5.61871e-06 DIIS
   @DF-RHF iter   7:  -224.84369544915148   -3.08807e-06   2.19503e-06 DIIS
   @DF-RHF iter   8:  -224.84369618106993   -7.31918e-07   7.77587e-07 DIIS
   @DF-RHF iter   9:  -224.84369629186403   -1.10794e-07   1.87961e-07 DIIS
   @DF-RHF iter  10:  -224.84369629739950   -5.53547e-09   7.33126e-08 DIIS
   @DF-RHF iter  11:  -224.84369629822612   -8.26617e-10   3.26918e-08 DIIS
   @DF-RHF iter  12:  -224.84369629837795   -1.51829e-10   9.70884e-09 DIIS
   @DF-RHF iter  13:  -224.84369629839119   -1.32445e-11   3.58840e-09 DIIS
   @DF-RHF iter  14:  -224.84369629839273   -1.53477e-12   1.58275e-09 DIIS
   @DF-RHF iter  15:  -224.84369629839318   -4.54747e-13   5.27556e-10 DIIS
   @DF-RHF iter  16:  -224.84369629839347   -2.84217e-13   2.34517e-10 DIIS
   @DF-RHF iter  17:  -224.84369629839341    5.68434e-14   4.71140e-11 DIIS
  Energy and wave function converged.


  ==> Post-Iterations <==

    Orbital Energies [Eh]
    ---------------------

    Doubly Occupied:

       1A    -15.637071     2A    -15.551216     3A    -11.300916
       4A    -11.263160     5A    -11.245653     6A     -1.352867
       7A     -1.169098     8A     -1.012098     9A     -0.824390
      10A     -0.803731    11A     -0.760666    12A     -0.610096
      13A     -0.603958    14A     -0.601922    15A     -0.570942
      16A     -0.435483    17A     -0.400464    18A     -0.320685

    Virtual:

      19A      0.024151    20A      0.025388    21A      0.041448
      22A      0.041735    23A      0.044989    24A      0.050231
      25A      0.061704    26A      0.069464    27A      0.078064
      28A      0.087962    29A      0.089096    30A      0.099067
      31A      0.101396    32A      0.120803    33A      0.125571
      34A      0.126087    35A      0.126834    36A      0.128572
      37A      0.128751    38A      0.133619    39A      0.133816
      40A      0.135517    41A      0.139850    42A      0.140942
      43A      0.156425    44A      0.158338    45A      0.158803
      46A      0.172622    47A      0.178189    48A      0.187224
      49A      0.193956    50A      0.209165    51A      0.211100
      52A      0.211559    53A      0.214200    54A      0.220259
      55A      0.222118    56A      0.224202    57A      0.232344
      58A      0.234753    59A      0.241408    60A      0.261624
      61A      0.267810    62A      0.273653    63A      0.277911
      64A      0.301126    65A      0.301780    66A      0.308073
      67A      0.314445    68A      0.320892    69A      0.338199
      70A      0.361445    71A      0.361733    72A      0.370725
      73A      0.376931    74A      0.380236    75A      0.388293
      76A      0.395012    77A      0.397181    78A      0.417217
      79A      0.428869    80A      0.429456    81A      0.436804
      82A      0.442128    83A      0.450563    84A      0.452059
      85A      0.453614    86A      0.466350    87A      0.469852
      88A      0.481234    89A      0.482699    90A      0.486284
      91A      0.488158    92A      0.519022    93A      0.522195
      94A      0.537586    95A      0.539718    96A      0.544878
      97A      0.551714    98A      0.556414    99A      0.557367
     100A      0.568316   101A      0.576474   102A      0.580930
     103A      0.589166   104A      0.594250   105A      0.598944
     106A      0.608243   107A      0.613567   108A      0.616081
     109A      0.619933   110A      0.636547   111A      0.641457
     112A      0.652507   113A      0.669282   114A      0.671338
     115A      0.678210   116A      0.679229   117A      0.683875
     118A      0.685538   119A      0.712930   120A      0.714703
     121A      0.725800   122A      0.737851   123A      0.741248
     124A      0.757653   125A      0.762701   126A      0.767407
     127A      0.790957   128A      0.793606   129A      0.799828
     130A      0.809750   131A      0.812075   132A      0.813941
     133A      0.825051   134A      0.838395   135A      0.860274
     136A      0.861574   137A      0.871430   138A      0.885790
     139A      0.888217   140A      0.889823   141A      0.911420
     142A      0.921326   143A      0.928586   144A      0.954351
     145A      0.970382   146A      0.976969   147A      0.993467
     148A      0.998362   149A      1.010706   150A      1.017140
     151A      1.017405   152A      1.030679   153A      1.060797
     154A      1.077368   155A      1.080202   156A      1.084554
     157A      1.105337   158A      1.117662   159A      1.127028
     160A      1.134019   161A      1.140508   162A      1.149569
     163A      1.167170   164A      1.172686   165A      1.175665
     166A      1.199167   167A      1.212191   168A      1.217445
     169A      1.260722   170A      1.279704   171A      1.292262
     172A      1.298663   173A      1.302552   174A      1.314193
     175A      1.319735   176A      1.349255   177A      1.385029
     178A      1.385684   179A      1.398151   180A      1.451153
     181A      1.496528   182A      1.503301   183A      1.517437
     184A      1.518410   185A      1.542980   186A      1.574127
     187A      1.574354   188A      1.596381   189A      1.652159
     190A      1.662582   191A      1.671561   192A      1.705304
     193A      1.724478   194A      1.782643   195A      1.799073
     196A      1.807064   197A      1.864959   198A      1.881484
     199A      1.924392   200A      1.964994   201A      2.022006
     202A      2.025438   203A      2.041510   204A      2.072987
     205A      2.102720   206A      2.107063   207A      2.121061
     208A      2.126763   209A      2.133132   210A      2.135973
     211A      2.151242   212A      2.168671   213A      2.178817
     214A      2.187037   215A      2.231416   216A      2.254593
     217A      2.267082   218A      2.275976   219A      2.300924
     220A      2.310464   221A      2.328951   222A      2.332085
     223A      2.378487   224A      2.407121   225A      2.415191
     226A      2.417758   227A      2.457562   228A      2.472584
     229A      2.495697   230A      2.496921   231A      2.514042
     232A      2.527541   233A      2.545345   234A      2.547295
     235A      2.578773   236A      2.585744   237A      2.601728
     238A      2.633769   239A      2.698000   240A      2.734106
     241A      2.747025   242A      2.767092   243A      2.792080
     244A      2.794149   245A      2.803451   246A      2.830914
     247A      2.837645   248A      2.867213   249A      2.897568
     250A      2.935197   251A      2.951262   252A      2.952748
     253A      2.980863   254A      3.045305   255A      3.051201
     256A      3.069926   257A      3.078084   258A      3.133644
     259A      3.161440   260A      3.184887   261A      3.199180
     262A      3.208797   263A      3.215348   264A      3.334816
     265A      3.342733   266A      3.354591   267A      3.356584
     268A      3.364807   269A      3.460469   270A      3.496371
     271A      3.518562   272A      3.571351   273A      3.610876
     274A      3.709064   275A      3.728602   276A      3.768296
     277A      3.780243   278A      3.799953   279A      3.859865
     280A      3.872582   281A      4.005786   282A      4.109050
     283A      4.214584   284A      4.638676   285A      4.640729
     286A      4.697939   287A      4.773642   288A      4.881923
     289A      5.023330   290A      5.256630   291A      5.375127
     292A      5.496800   293A      5.612330   294A      5.718114
     295A      5.885791   296A      6.091486   297A      6.200037
     298A     18.257517   299A     18.591901   300A     19.302554
     301A     25.313901   302A     25.455025

    Final Occupation by Irrep:
              A
    DOCC [    18 ]

  @DF-RHF Final Energy:  -224.84369629839341

   => Energetics <=

    Nuclear Repulsion Energy =            164.0866958823358459
    One-Electron Energy =                -628.9319564550885389
    Two-Electron Energy =                 240.0015642743592821
    Total Energy =                       -224.8436962983934109

Computation Completed


Properties will be evaluated at   0.000000,   0.000000,   0.000000 [a0]

Properties computed using the SCF density matrix

  Nuclear Dipole Moment: [e a0]
     X:  -352.0188      Y:  -569.1880      Z:  1058.7910

  Electronic Dipole Moment: [e a0]
     X:   351.2150      Y:   569.0247      Z: -1057.4585

  Dipole Moment: [e a0]
     X:    -0.8038      Y:    -0.1633      Z:     1.3324     Total:     1.5646

  Dipole Moment: [D]
     X:    -2.0431      Y:    -0.4150      Z:     3.3867     Total:     3.9769


*** tstop() called on ds1 at Tue Sep 14 16:46:37 2021
Module time:
	user time   =      16.77 seconds =       0.28 minutes
	system time =       0.36 seconds =       0.01 minutes
	total time  =          4 seconds =       0.07 minutes
Total time:
	user time   =      57.65 seconds =       0.96 minutes
	system time =       1.28 seconds =       0.02 minutes
	total time  =         13 seconds =       0.22 minutes
  Constructing Basis Sets for SAPT...

   => Loading Basis Set <=

    Name: (AUG-CC-PVDZ AUX)
    Role: RIFIT
    Keyword: DF_BASIS_SAPT
    atoms 1-2, 10-11 entry N          line   158 file /theoryfs2/ds/csargent/miniconda3/envs/cle/share/psi4/basis/aug-cc-pvdz-ri.gbs
    atoms 3-6, 12-15 entry H          line    30 file /theoryfs2/ds/csargent/miniconda3/envs/cle/share/psi4/basis/aug-cc-pvdz-ri.gbs
    atoms 7-9, 16-18 entry C          line   112 file /theoryfs2/ds/csargent/miniconda3/envs/cle/share/psi4/basis/aug-cc-pvdz-ri.gbs


  //>>>>>>>>>>>>>>>>>>>>>>>>>>>>>>>>>>>//
  //               SAPT0               //
  //<<<<<<<<<<<<<<<<<<<<<<<<<<<<<<<<<<<//


*** tstart() called on ds1
*** at Tue Sep 14 16:46:37 2021

        SAPT0
    Ed Hohenstein
     6 June 2009

      Orbital Information
  --------------------------
    NSO        =       302
    NMO        =       302
    NRI        =       904
    NOCC A     =        18
    NOCC B     =        18
    FOCC A     =         5
    FOCC B     =         5
    NVIR A     =       284
    NVIR B     =       284

    Elst10,r            =     0.000077347231 [Eh]
    Exch10              =     0.000000000053 [Eh]
    Exch10 (S^2)        =     0.000000000053 [Eh]

    Iter     Energy [mEh]          dE [mEh]         Residual      Time [s]
       1      -0.00028677       0.000286772       0.177670901             0
       2      -0.00027217      -0.000014604       0.048502956             0
       3      -0.00030350       0.000031331       0.016296789             0
       4      -0.00030602       0.000002517       0.005087340             1
       5      -0.00030543      -0.000000583       0.002172033             1
       6      -0.00030521      -0.000000221       0.000658479             1
       7      -0.00030525       0.000000034       0.000250336             1
       8      -0.00030529       0.000000044       0.000063384             1
       9      -0.00030528      -0.000000012       0.000022263             1
      10      -0.00030528      -0.000000001       0.000005923             1
      11      -0.00030528       0.000000001       0.000001392             1
      12      -0.00030528      -0.000000000       0.000000494             2

    CHF Iterations converged


    Iter     Energy [mEh]          dE [mEh]         Residual      Time [s]
       1      -0.00028677       0.000286772       0.177670901             0
       2      -0.00027217      -0.000014604       0.048502956             0
       3      -0.00030350       0.000031331       0.016296789             0
       4      -0.00030602       0.000002517       0.005087340             0
       5      -0.00030543      -0.000000583       0.002172033             0
       6      -0.00030521      -0.000000221       0.000658479             0
       7      -0.00030525       0.000000034       0.000250336             0
       8      -0.00030529       0.000000044       0.000063384             1
       9      -0.00030528      -0.000000012       0.000022263             1
      10      -0.00030528      -0.000000001       0.000005923             1
      11      -0.00030528       0.000000001       0.000001392             1
      12      -0.00030528      -0.000000000       0.000000494             1

    CHF Iterations converged

    Ind20,r (A<-B)      =    -0.000000305279 [Eh]
    Ind20,r (B<-A)      =    -0.000000305279 [Eh]
    Ind20,r             =    -0.000000610558 [Eh]
    Exch-Ind20,r (A<-B) =     0.000000000042 [Eh]
    Exch-Ind20,r (B<-A) =     0.000000000042 [Eh]
    Exch-Ind20,r        =     0.000000000083 [Eh]
    Disp20              =    -0.000002513909 [Eh]
    Disp20 (SS)         =    -0.000001256954 [Eh]
    Disp20 (OS)         =    -0.000001256954 [Eh]
    Exch-Disp20         =     0.000000000003 [Eh]
    Exch-Disp20 (SS)    =     0.000000000003 [Eh]
    Exch-Disp20 (OS)    =     0.000000000001 [Eh]

    SAPT Results
  --------------------------------------------------------------------------------------------------------
    Electrostatics                  0.07734723 [mEh]       0.04853612 [kcal/mol]       0.20307513 [kJ/mol]
      Elst10,r                      0.07734723 [mEh]       0.04853612 [kcal/mol]       0.20307513 [kJ/mol]

    Exchange                        0.00000005 [mEh]       0.00000003 [kcal/mol]       0.00000014 [kJ/mol]
      Exch10                        0.00000005 [mEh]       0.00000003 [kcal/mol]       0.00000014 [kJ/mol]
      Exch10(S^2)                   0.00000005 [mEh]       0.00000003 [kcal/mol]       0.00000014 [kJ/mol]

    Induction                      -0.00057582 [mEh]      -0.00036133 [kcal/mol]      -0.00151181 [kJ/mol]
      Ind20,r                      -0.00061056 [mEh]      -0.00038313 [kcal/mol]      -0.00160302 [kJ/mol]
      Exch-Ind20,r                  0.00000008 [mEh]       0.00000005 [kcal/mol]       0.00000022 [kJ/mol]
      delta HF,r (2)                0.00003466 [mEh]       0.00002175 [kcal/mol]       0.00009099 [kJ/mol]

    Dispersion                     -0.00251391 [mEh]      -0.00157750 [kcal/mol]      -0.00660026 [kJ/mol]
      Disp20                       -0.00251391 [mEh]      -0.00157750 [kcal/mol]      -0.00660027 [kJ/mol]
      Exch-Disp20                   0.00000000 [mEh]       0.00000000 [kcal/mol]       0.00000001 [kJ/mol]
      Disp20 (SS)                  -0.00125695 [mEh]      -0.00078875 [kcal/mol]      -0.00330013 [kJ/mol]
      Disp20 (OS)                  -0.00125695 [mEh]      -0.00078875 [kcal/mol]      -0.00330013 [kJ/mol]
      Exch-Disp20 (SS)              0.00000000 [mEh]       0.00000000 [kcal/mol]       0.00000001 [kJ/mol]
      Exch-Disp20 (OS)              0.00000000 [mEh]       0.00000000 [kcal/mol]       0.00000000 [kJ/mol]

  Total HF                          0.07677147 [mEh]       0.04817482 [kcal/mol]       0.20156346 [kJ/mol]
  Total SAPT0                       0.07425756 [mEh]       0.04659732 [kcal/mol]       0.19496320 [kJ/mol]

  Special recipe for scaled SAPT0 (see Manual):
    Electrostatics sSAPT0           0.07734723 [mEh]       0.04853612 [kcal/mol]       0.20307513 [kJ/mol]
    Exchange sSAPT0                 0.00000005 [mEh]       0.00000003 [kcal/mol]       0.00000014 [kJ/mol]
    Induction sSAPT0               -0.00057582 [mEh]      -0.00036133 [kcal/mol]      -0.00151181 [kJ/mol]
    Dispersion sSAPT0              -0.00251391 [mEh]      -0.00157750 [kcal/mol]      -0.00660026 [kJ/mol]
  Total sSAPT0                      0.07425756 [mEh]       0.04659732 [kcal/mol]       0.19496320 [kJ/mol]
  --------------------------------------------------------------------------------------------------------

*** tstop() called on ds1 at Tue Sep 14 16:46:46 2021
Module time:
	user time   =      45.79 seconds =       0.76 minutes
	system time =       3.91 seconds =       0.07 minutes
	total time  =          9 seconds =       0.15 minutes
Total time:
	user time   =     104.46 seconds =       1.74 minutes
	system time =       5.21 seconds =       0.09 minutes
	total time  =         22 seconds =       0.37 minutes


Warning! sapt0 does not have an associated derived wavefunction.The returned wavefunction is the dimer SCF wavefunction.


    Psi4 stopped on: Tuesday, 14 September 2021 04:46PM
    Psi4 wall time for execution: 0:00:22.40

*** Psi4 exiting successfully. Buy a developer a beer!
