
    -----------------------------------------------------------------------
          Psi4: An Open-Source Ab Initio Electronic Structure Package
                               Psi4 1.4rc3 

                         Git: Rev {HEAD} 080dba6 


    D. G. A. Smith, L. A. Burns, A. C. Simmonett, R. M. Parrish,
    M. C. Schieber, R. Galvelis, P. Kraus, H. Kruse, R. Di Remigio,
    A. Alenaizan, A. M. James, S. Lehtola, J. P. Misiewicz, M. Scheurer,
    R. A. Shaw, J. B. Schriber, Y. Xie, Z. L. Glick, D. A. Sirianni,
    J. S. O'Brien, J. M. Waldrop, A. Kumar, E. G. Hohenstein,
    B. P. Pritchard, B. R. Brooks, H. F. Schaefer III, A. Yu. Sokolov,
    K. Patkowski, A. E. DePrince III, U. Bozkaya, R. A. King,
    F. A. Evangelista, J. M. Turney, T. D. Crawford, C. D. Sherrill,
    J. Chem. Phys. 152(18) 184108 (2020). https://doi.org/10.1063/5.0006002

                            Additional Code Authors
    E. T. Seidl, C. L. Janssen, E. F. Valeev, M. L. Leininger,
    J. F. Gonthier, R. M. Richard, H. R. McAlexander, M. Saitow, X. Wang,
    P. Verma, and M. H. Lechner

             Previous Authors, Complete List of Code Contributors,
                       and Citations for Specific Modules
    https://github.com/psi4/psi4/blob/master/codemeta.json
    https://github.com/psi4/psi4/graphs/contributors
    http://psicode.org/psi4manual/master/introduction.html#citing-psifour

    -----------------------------------------------------------------------


    Psi4 started on: Tuesday, 14 September 2021 04:36PM

    Process ID: 498
    Host:       ds1
    PSIDATADIR: /theoryfs2/ds/csargent/miniconda3/envs/cle/share/psi4
    Memory:     500.0 MiB
    Threads:    6
    
  ==> Input File <==

--------------------------------------------------------------------------
# PSI4 file produced by CrystaLattE

# Generated from:               imidazole.xyz
# Psithon input for N-mer:      2mer-0+387
# Number of atoms per monomer:  [9, 9]
# Number of replicas:           2
# COM priority:                 1.455790677469e-05
# Minimum COM separations:      21.672 
# Separation priority:          2.146162817159e-05
# Minimum monomer separations:  19.042 
# Cutoff priority:              5.964172854865e-07
# Nuclear repulsion energy:     359.8307238057196

memory 7 GB

molecule Dimer_0_387 {
  N           -4.29309621      -3.06837431       5.30516231 
  N           -2.15847371      -2.92627296       1.72037448 
  H           -0.02545587      -6.35903575       2.22046452 
  H           -2.68566968      -6.53260241       6.61445954 
  H           -4.74388423      -0.00609006       2.75615968 
  H           -1.41045540      -2.24723147       0.00000000 
  C           -1.43737991      -5.07504848       2.94065891 
  C           -2.76900782      -5.14609916       5.13522880 
  C           -3.85955036      -1.77728198       3.21093411 
--
  N           33.32783853      -3.06837431     -10.87898141 
  N           35.46246103      -2.92627296     -14.46376924 
  H           37.59547888      -6.35903575     -13.96367920 
  H           34.93526506      -6.53260241      -9.56968418 
  H           32.87705052      -0.00609006     -13.42798405 
  H           36.21047934      -2.24723147     -16.18414372 
  C           36.18355483      -5.07504848     -13.24348481 
  C           34.85192692      -5.14609916     -11.04891492 
  C           33.76138439      -1.77728198     -12.97320961 
units = au
no_com
no_reorient
}

set {
  e_convergence 10
  d_convergence 10
  scf_type df
  mp2_type df
  cc_type df
  freeze_core true
}

energy('sapt0/aug-cc-pvdz')

--------------------------------------------------------------------------

  Memory set to   6.519 GiB by Python driver.

Scratch directory: /scratch/csargent/psi4.31446.79897/

Scratch directory: /scratch/csargent/psi4.31446.79897/

  //>>>>>>>>>>>>>>>>>>>>>>>>>>>>>>>>>>>//
  //              Dimer HF             //
  //<<<<<<<<<<<<<<<<<<<<<<<<<<<<<<<<<<<//


*** tstart() called on ds1
*** at Tue Sep 14 16:36:23 2021

   => Loading Basis Set <=

    Name: AUG-CC-PVDZ
    Role: ORBITAL
    Keyword: BASIS
    atoms 1-2, 10-11 entry N          line   218 file /theoryfs2/ds/csargent/miniconda3/envs/cle/share/psi4/basis/aug-cc-pvdz.gbs 
    atoms 3-6, 12-15 entry H          line    40 file /theoryfs2/ds/csargent/miniconda3/envs/cle/share/psi4/basis/aug-cc-pvdz.gbs 
    atoms 7-9, 16-18 entry C          line   182 file /theoryfs2/ds/csargent/miniconda3/envs/cle/share/psi4/basis/aug-cc-pvdz.gbs 


         ---------------------------------------------------------
                                   SCF
               by Justin Turney, Rob Parrish, Andy Simmonett
                          and Daniel G. A. Smith
                              RHF Reference
                        6 Threads,   6675 MiB Core
         ---------------------------------------------------------

  ==> Geometry <==

    Molecular point group: c1
    Full point group: C1

    Geometry (in Bohr), charge = 0, multiplicity = 1:

       Center              X                  Y                   Z               Mass       
    ------------   -----------------  -----------------  -----------------  -----------------
         N           -4.293096210000    -3.068374310000     5.305162310000    14.003074004430
         N           -2.158473710000    -2.926272960000     1.720374480000    14.003074004430
         H           -0.025455870000    -6.359035750000     2.220464520000     1.007825032230
         H           -2.685669680000    -6.532602410000     6.614459540000     1.007825032230
         H           -4.743884230000    -0.006090060000     2.756159680000     1.007825032230
         H           -1.410455400000    -2.247231470000     0.000000000000     1.007825032230
         C           -1.437379910000    -5.075048480000     2.940658910000    12.000000000000
         C           -2.769007820000    -5.146099160000     5.135228800000    12.000000000000
         C           -3.859550360000    -1.777281980000     3.210934110000    12.000000000000
         N           33.327838530000    -3.068374310000   -10.878981410000    14.003074004430
         N           35.462461030000    -2.926272960000   -14.463769240000    14.003074004430
         H           37.595478880000    -6.359035750000   -13.963679200000     1.007825032230
         H           34.935265060000    -6.532602410000    -9.569684180000     1.007825032230
         H           32.877050520000    -0.006090060000   -13.427984050000     1.007825032230
         H           36.210479340000    -2.247231470000   -16.184143720000     1.007825032230
         C           36.183554830000    -5.075048480000   -13.243484810000    12.000000000000
         C           34.851926920000    -5.146099160000   -11.048914920000    12.000000000000
         C           33.761384390000    -1.777281980000   -12.973209610000    12.000000000000

  Running in c1 symmetry.

  Rotational constants: A =      0.03179  B =      0.00063  C =      0.00062 [cm^-1]
  Rotational constants: A =    952.90770  B =     18.99729  C =     18.66120 [MHz]
  Nuclear repulsion =  359.830723980555717

  Charge       = 0
  Multiplicity = 1
  Electrons    = 72
  Nalpha       = 36
  Nbeta        = 36

  ==> Algorithm <==

  SCF Algorithm Type is DF.
  DIIS enabled.
  MOM disabled.
  Fractional occupation disabled.
  Guess Type is SAD.
  Energy threshold   = 1.00e-10
  Density threshold  = 1.00e-10
  Integral threshold = 1.00e-12

  ==> Primary Basis <==

  Basis Set: AUG-CC-PVDZ
    Blend: AUG-CC-PVDZ
    Number of shells: 130
    Number of basis functions: 302
    Number of Cartesian functions: 322
    Spherical Harmonics?: true
    Max angular momentum: 2

   => Loading Basis Set <=

    Name: (AUG-CC-PVDZ AUX)
    Role: JKFIT
    Keyword: DF_BASIS_SCF
    atoms 1-2, 10-11 entry N          line   212 file /theoryfs2/ds/csargent/miniconda3/envs/cle/share/psi4/basis/aug-cc-pvdz-jkfit.gbs 
    atoms 3-6, 12-15 entry H          line    70 file /theoryfs2/ds/csargent/miniconda3/envs/cle/share/psi4/basis/aug-cc-pvdz-jkfit.gbs 
    atoms 7-9, 16-18 entry C          line   154 file /theoryfs2/ds/csargent/miniconda3/envs/cle/share/psi4/basis/aug-cc-pvdz-jkfit.gbs 

  ==> Integral Setup <==

  ==> DiskDFJK: Density-Fitted J/K Matrices <==

    J tasked:                  Yes
    K tasked:                  Yes
    wK tasked:                  No
    OpenMP threads:              6
    Integrals threads:           6
    Memory [MiB]:             5006
    Algorithm:                Core
    Integral Cache:           SAVE
    Schwarz Cutoff:          1E-12
    Fitting Condition:       1E-10

   => Auxiliary Basis Set <=

  Basis Set: (AUG-CC-PVDZ AUX)
    Blend: AUG-CC-PVDZ-JKFIT
    Number of shells: 376
    Number of basis functions: 1116
    Number of Cartesian functions: 1290
    Spherical Harmonics?: true
    Max angular momentum: 3

  Minimum eigenvalue in the overlap matrix is 2.1837059637E-05.
  Reciprocal condition number of the overlap matrix is 1.8394511304E-06.
    Using symmetric orthogonalization.

  ==> Pre-Iterations <==

  SCF Guess: Superposition of Atomic Densities via on-the-fly atomic UHF (no occupation information).

   -------------------------
    Irrep   Nso     Nmo    
   -------------------------
     A        302     302 
   -------------------------
    Total     302     302
   -------------------------

  ==> Iterations <==

                           Total Energy        Delta E     RMS |[F,P]|

   @DF-RHF iter SAD:  -449.11714339927414   -4.49117e+02   0.00000e+00 
   @DF-RHF iter   1:  -449.39621067808736   -2.79067e-01   2.30595e-03 DIIS
   @DF-RHF iter   2:  -449.61071078964687   -2.14500e-01   1.31124e-03 DIIS
   @DF-RHF iter   3:  -449.68341264473480   -7.27019e-02   2.45996e-04 DIIS
   @DF-RHF iter   4:  -449.68678138375566   -3.36874e-03   1.12921e-04 DIIS
   @DF-RHF iter   5:  -449.68738376977421   -6.02386e-04   1.78804e-05 DIIS
   @DF-RHF iter   6:  -449.68741842857651   -3.46588e-05   7.94463e-06 DIIS
   @DF-RHF iter   7:  -449.68742460324790   -6.17467e-06   3.10424e-06 DIIS
   @DF-RHF iter   8:  -449.68742606765613   -1.46441e-06   1.09984e-06 DIIS
   @DF-RHF iter   9:  -449.68742628937946   -2.21723e-07   2.65960e-07 DIIS
   @DF-RHF iter  10:  -449.68742630045728   -1.10778e-08   1.03831e-07 DIIS
   @DF-RHF iter  11:  -449.68742630211341   -1.65613e-09   4.62472e-08 DIIS
   @DF-RHF iter  12:  -449.68742630241712   -3.03714e-10   1.37445e-08 DIIS
   @DF-RHF iter  13:  -449.68742630244412   -2.70006e-11   5.07714e-09 DIIS
   @DF-RHF iter  14:  -449.68742630244736   -3.24007e-12   2.24066e-09 DIIS
   @DF-RHF iter  15:  -449.68742630244765   -2.84217e-13   7.46230e-10 DIIS
   @DF-RHF iter  16:  -449.68742630244827   -6.25278e-13   3.31688e-10 DIIS
   @DF-RHF iter  17:  -449.68742630244827    0.00000e+00   6.66973e-11 DIIS
  Energy and wave function converged.


  ==> Post-Iterations <==

    Orbital Energies [Eh]
    ---------------------

    Doubly Occupied:                                                      

       1A    -15.637789     2A    -15.636272     3A    -15.551960  
       4A    -15.550446     5A    -11.301652     6A    -11.300138  
       7A    -11.263869     8A    -11.262352     9A    -11.246363  
      10A    -11.244851    11A     -1.353590    12A     -1.352074  
      13A     -1.169827    14A     -1.168312    15A     -1.012817  
      16A     -1.011302    17A     -0.825111    18A     -0.823596  
      19A     -0.804449    20A     -0.802936    21A     -0.761388  
      22A     -0.759871    23A     -0.610817    24A     -0.609304  
      25A     -0.604680    26A     -0.603164    27A     -0.602631  
      28A     -0.601110    29A     -0.571668    30A     -0.570161  
      31A     -0.436231    32A     -0.434717    33A     -0.401196  
      34A     -0.399681    35A     -0.321402    36A     -0.319887  

    Virtual:                                                              

      37A      0.024746    38A      0.026279    39A      0.040913  
      40A      0.042440    41A      0.049286    42A      0.050753  
      43A      0.061180    44A      0.062679    45A      0.088359  
      46A      0.089879    47A      0.100629    48A      0.102146  
      49A      0.120096    50A      0.121620    51A      0.124889  
      52A      0.126416    53A      0.132825    54A      0.133063  
      55A      0.134358    56A      0.134555    57A      0.140223  
      58A      0.141725    59A      0.155862    60A      0.157404  
      61A      0.157943    62A      0.159443    63A      0.171299  
      64A      0.172748    65A      0.177474    66A      0.178992  
      67A      0.186494    68A      0.188015    69A      0.210800  
      70A      0.212318    71A      0.219552    72A      0.221064  
      73A      0.231618    74A      0.233136    75A      0.240703  
      76A      0.242226    77A      0.260897    78A      0.262424  
      79A      0.267015    80A      0.268525    81A      0.277142  
      82A      0.278651    83A      0.301019    84A      0.302539  
      85A      0.313661    86A      0.315170    87A      0.337487  
      88A      0.338997    89A      0.360802    90A      0.362326  
      91A      0.370037    92A      0.371554    93A      0.379111  
      94A      0.380622    95A      0.387586    96A      0.389113  
      97A      0.396396    98A      0.397921    99A      0.416298  
     100A      0.417785   101A      0.428256   102A      0.429762  
     103A      0.451337   104A      0.452849   105A      0.465629  
     106A      0.467135   107A      0.480519   108A      0.482042  
     109A      0.485582   110A      0.487096   111A      0.487436  
     112A      0.488941   113A      0.550987   114A      0.552499  
     115A      0.555678   116A      0.557196   117A      0.567564  
     118A      0.569082   119A      0.575737   120A      0.577250  
     121A      0.593538   122A      0.595059   123A      0.598240  
     124A      0.599760   125A      0.615355   126A      0.616865  
     127A      0.635835   128A      0.637353   129A      0.651779  
     130A      0.653285   131A      0.668566   132A      0.670079  
     133A      0.670620   134A      0.672132   135A      0.677465  
     136A      0.678976   137A      0.683175   138A      0.684682  
     139A      0.713983   140A      0.715500   141A      0.725055  
     142A      0.726581   143A      0.740518   144A      0.742024  
     145A      0.761973   146A      0.763488   147A      0.766670  
     148A      0.768183   149A      0.790215   150A      0.791730  
     151A      0.792859   152A      0.794376   153A      0.809031  
     154A      0.810545   155A      0.859677   156A      0.861189  
     157A      0.870706   158A      0.872219   159A      0.885030  
     160A      0.886547   161A      0.889125   162A      0.890641  
     163A      0.953629   164A      0.955145   165A      0.976240  
     166A      0.977756   167A      0.997629   168A      0.999144  
     169A      1.009954   170A      1.011471   171A      1.016681  
     172A      1.018196   173A      1.029954   174A      1.031468  
     175A      1.076610   176A      1.078125   177A      1.083821  
     178A      1.085337   179A      1.126262   180A      1.127774  
     181A      1.139770   182A      1.141280   183A      1.148845  
     184A      1.150363   185A      1.166447   186A      1.167957  
     187A      1.216713   188A      1.218227   189A      1.260018  
     190A      1.261541   191A      1.301820   192A      1.303328  
     193A      1.384304   194A      1.385818   195A      1.397408  
     196A      1.398924   197A      1.450416   198A      1.451931  
     199A      1.502559   200A      1.504071   201A      1.517690  
     202A      1.519205   203A      1.573415   204A      1.573561  
     205A      1.574930   206A      1.575073   207A      1.595664  
     208A      1.597180   209A      1.651430   210A      1.652946  
     211A      1.670797   212A      1.672311   213A      1.704576  
     214A      1.706090   215A      1.723732   216A      1.725245  
     217A      1.781932   218A      1.783450   219A      1.798353  
     220A      1.799869   221A      1.806350   222A      1.807858  
     223A      1.864221   224A      1.865735   225A      1.880741  
     226A      1.882256   227A      1.923657   228A      1.925173  
     229A      1.964261   230A      1.965777   231A      2.021298  
     232A      2.022815   233A      2.024716   234A      2.026232  
     235A      2.072263   236A      2.073778   237A      2.106336  
     238A      2.107853   239A      2.126048   240A      2.127562  
     241A      2.135251   242A      2.136766   243A      2.167956  
     244A      2.169470   245A      2.178097   246A      2.179612  
     247A      2.266361   248A      2.267874   249A      2.275232  
     250A      2.276743   251A      2.300190   252A      2.301703  
     253A      2.331343   254A      2.332858   255A      2.417050  
     256A      2.418566   257A      2.496202   258A      2.497720  
     259A      2.513297   260A      2.514810   261A      2.544626  
     262A      2.546142   263A      2.585027   264A      2.586545  
     265A      2.633044   266A      2.634559   267A      2.733382  
     268A      2.734895   269A      2.746294   270A      2.747810  
     271A      2.766372   272A      2.767889   273A      2.793425  
     274A      2.794941   275A      2.802714   276A      2.804226  
     277A      2.836925   278A      2.838440   279A      2.866482  
     280A      2.867998   281A      2.952017   282A      2.953532  
     283A      2.980127   284A      2.981642   285A      3.050486  
     286A      3.052002   287A      3.069191   288A      3.070706  
     289A      3.198434   290A      3.199949   291A      3.208073  
     292A      3.209586   293A      3.334087   294A      3.335602  
     295A      3.353844   296A      3.355359   297A      3.517824  
     298A      3.519340   299A      3.767565   300A      3.769078  
     301A      4.108312   302A      4.109828  

    Final Occupation by Irrep:
              A 
    DOCC [    36 ]

  @DF-RHF Final Energy:  -449.68742630244827

   => Energetics <=

    Nuclear Repulsion Energy =            359.8307239805557174
    One-Electron Energy =               -1321.1810739198429019
    Two-Electron Energy =                 511.6629236368389115
    Total Energy =                       -449.6874263024482730

Computation Completed


Properties will be evaluated at   0.000000,   0.000000,   0.000000 [a0]

Properties computed using the SCF density matrix

  Nuclear Dipole Moment: [e a0]
     X:  1149.5095      Y:  -258.1961      Z:  -325.6476

  Electronic Dipole Moment: [e a0]
     X: -1147.8984      Y:   258.5219      Z:   322.9821

  Dipole Moment: [e a0]
     X:     1.6110      Y:     0.3257      Z:    -2.6655     Total:     3.1316

  Dipole Moment: [D]
     X:     4.0949      Y:     0.8280      Z:    -6.7751     Total:     7.9596


*** tstop() called on ds1 at Tue Sep 14 16:36:28 2021
Module time:
	user time   =      22.28 seconds =       0.37 minutes
	system time =       0.54 seconds =       0.01 minutes
	total time  =          5 seconds =       0.08 minutes
Total time:
	user time   =      22.28 seconds =       0.37 minutes
	system time =       0.54 seconds =       0.01 minutes
	total time  =          5 seconds =       0.08 minutes

  //>>>>>>>>>>>>>>>>>>>>>>>>>>>>>>>>>>>//
  //            Monomer A HF           //
  //<<<<<<<<<<<<<<<<<<<<<<<<<<<<<<<<<<<//


*** tstart() called on ds1
*** at Tue Sep 14 16:36:28 2021

   => Loading Basis Set <=

    Name: AUG-CC-PVDZ
    Role: ORBITAL
    Keyword: BASIS
    atoms 1-2, 10-11 entry N          line   218 file /theoryfs2/ds/csargent/miniconda3/envs/cle/share/psi4/basis/aug-cc-pvdz.gbs 
    atoms 3-6, 12-15 entry H          line    40 file /theoryfs2/ds/csargent/miniconda3/envs/cle/share/psi4/basis/aug-cc-pvdz.gbs 
    atoms 7-9, 16-18 entry C          line   182 file /theoryfs2/ds/csargent/miniconda3/envs/cle/share/psi4/basis/aug-cc-pvdz.gbs 


         ---------------------------------------------------------
                                   SCF
               by Justin Turney, Rob Parrish, Andy Simmonett
                          and Daniel G. A. Smith
                              RHF Reference
                        6 Threads,   6675 MiB Core
         ---------------------------------------------------------

  ==> Geometry <==

    Molecular point group: c1
    Full point group: C1

    Geometry (in Bohr), charge = 0, multiplicity = 1:

       Center              X                  Y                   Z               Mass       
    ------------   -----------------  -----------------  -----------------  -----------------
         N           -4.293096210000    -3.068374310000     5.305162310000    14.003074004430
         N           -2.158473710000    -2.926272960000     1.720374480000    14.003074004430
         H           -0.025455870000    -6.359035750000     2.220464520000     1.007825032230
         H           -2.685669680000    -6.532602410000     6.614459540000     1.007825032230
         H           -4.743884230000    -0.006090060000     2.756159680000     1.007825032230
         H           -1.410455400000    -2.247231470000     0.000000000000     1.007825032230
         C           -1.437379910000    -5.075048480000     2.940658910000    12.000000000000
         C           -2.769007820000    -5.146099160000     5.135228800000    12.000000000000
         C           -3.859550360000    -1.777281980000     3.210934110000    12.000000000000
      Gh(N)          33.327838530000    -3.068374310000   -10.878981410000    14.003074004430
      Gh(N)          35.462461030000    -2.926272960000   -14.463769240000    14.003074004430
      Gh(H)          37.595478880000    -6.359035750000   -13.963679200000     1.007825032230
      Gh(H)          34.935265060000    -6.532602410000    -9.569684180000     1.007825032230
      Gh(H)          32.877050520000    -0.006090060000   -13.427984050000     1.007825032230
      Gh(H)          36.210479340000    -2.247231470000   -16.184143720000     1.007825032230
      Gh(C)          36.183554830000    -5.075048480000   -13.243484810000    12.000000000000
      Gh(C)          34.851926920000    -5.146099160000   -11.048914920000    12.000000000000
      Gh(C)          33.761384390000    -1.777281980000   -12.973209610000    12.000000000000

  Running in c1 symmetry.

  Rotational constants: A =      0.03179  B =      0.00063  C =      0.00062 [cm^-1]
  Rotational constants: A =    952.90770  B =     18.99729  C =     18.66120 [MHz]
  Nuclear repulsion =  164.086695994184396

  Charge       = 0
  Multiplicity = 1
  Electrons    = 36
  Nalpha       = 18
  Nbeta        = 18

  ==> Algorithm <==

  SCF Algorithm Type is DF.
  DIIS enabled.
  MOM disabled.
  Fractional occupation disabled.
  Guess Type is SAD.
  Energy threshold   = 1.00e-10
  Density threshold  = 1.00e-10
  Integral threshold = 1.00e-12

  ==> Primary Basis <==

  Basis Set: AUG-CC-PVDZ
    Blend: AUG-CC-PVDZ
    Number of shells: 130
    Number of basis functions: 302
    Number of Cartesian functions: 322
    Spherical Harmonics?: true
    Max angular momentum: 2

   => Loading Basis Set <=

    Name: (AUG-CC-PVDZ AUX)
    Role: JKFIT
    Keyword: DF_BASIS_SCF
    atoms 1-2, 10-11 entry N          line   212 file /theoryfs2/ds/csargent/miniconda3/envs/cle/share/psi4/basis/aug-cc-pvdz-jkfit.gbs 
    atoms 3-6, 12-15 entry H          line    70 file /theoryfs2/ds/csargent/miniconda3/envs/cle/share/psi4/basis/aug-cc-pvdz-jkfit.gbs 
    atoms 7-9, 16-18 entry C          line   154 file /theoryfs2/ds/csargent/miniconda3/envs/cle/share/psi4/basis/aug-cc-pvdz-jkfit.gbs 

  ==> Integral Setup <==

  ==> DiskDFJK: Density-Fitted J/K Matrices <==

    J tasked:                  Yes
    K tasked:                  Yes
    wK tasked:                  No
    OpenMP threads:              6
    Integrals threads:           6
    Memory [MiB]:             5006
    Algorithm:                Core
    Integral Cache:           LOAD
    Schwarz Cutoff:          1E-12
    Fitting Condition:       1E-10

   => Auxiliary Basis Set <=

  Basis Set: (AUG-CC-PVDZ AUX)
    Blend: AUG-CC-PVDZ-JKFIT
    Number of shells: 376
    Number of basis functions: 1116
    Number of Cartesian functions: 1290
    Spherical Harmonics?: true
    Max angular momentum: 3

  Minimum eigenvalue in the overlap matrix is 2.1837059637E-05.
  Reciprocal condition number of the overlap matrix is 1.8394511304E-06.
    Using symmetric orthogonalization.

  ==> Pre-Iterations <==

  SCF Guess: Superposition of Atomic Densities via on-the-fly atomic UHF (no occupation information).

   -------------------------
    Irrep   Nso     Nmo    
   -------------------------
     A        302     302 
   -------------------------
    Total     302     302
   -------------------------

  ==> Iterations <==

                           Total Energy        Delta E     RMS |[F,P]|

   @DF-RHF iter SAD:  -224.55857169494638   -2.24559e+02   0.00000e+00 
   @DF-RHF iter   1:  -224.69806464808255   -1.39493e-01   1.63067e-03 DIIS
   @DF-RHF iter   2:  -224.80532026637530   -1.07256e-01   9.27384e-04 DIIS
   @DF-RHF iter   3:  -224.84168817027353   -3.63679e-02   1.74019e-04 DIIS
   @DF-RHF iter   4:  -224.84337342233945   -1.68525e-03   7.98972e-05 DIIS
   @DF-RHF iter   5:  -224.84367500305206   -3.01581e-04   1.26452e-05 DIIS
   @DF-RHF iter   6:  -224.84369234008545   -1.73370e-05   5.61871e-06 DIIS
   @DF-RHF iter   7:  -224.84369542815517   -3.08807e-06   2.19503e-06 DIIS
   @DF-RHF iter   8:  -224.84369616007336   -7.31918e-07   7.77587e-07 DIIS
   @DF-RHF iter   9:  -224.84369627086744   -1.10794e-07   1.87961e-07 DIIS
   @DF-RHF iter  10:  -224.84369627640314   -5.53570e-09   7.33125e-08 DIIS
   @DF-RHF iter  11:  -224.84369627722967   -8.26532e-10   3.26918e-08 DIIS
   @DF-RHF iter  12:  -224.84369627738192   -1.52255e-10   9.70884e-09 DIIS
   @DF-RHF iter  13:  -224.84369627739494   -1.30171e-11   3.58840e-09 DIIS
   @DF-RHF iter  14:  -224.84369627739642   -1.47793e-12   1.58275e-09 DIIS
   @DF-RHF iter  15:  -224.84369627739724   -8.24230e-13   5.27556e-10 DIIS
   @DF-RHF iter  16:  -224.84369627739696    2.84217e-13   2.34517e-10 DIIS
   @DF-RHF iter  17:  -224.84369627739687    8.52651e-14   4.71137e-11 DIIS
  Energy and wave function converged.


  ==> Post-Iterations <==

    Orbital Energies [Eh]
    ---------------------

    Doubly Occupied:                                                      

       1A    -15.637071     2A    -15.551216     3A    -11.300916  
       4A    -11.263160     5A    -11.245653     6A     -1.352867  
       7A     -1.169098     8A     -1.012098     9A     -0.824390  
      10A     -0.803731    11A     -0.760666    12A     -0.610096  
      13A     -0.603958    14A     -0.601922    15A     -0.570942  
      16A     -0.435483    17A     -0.400464    18A     -0.320685  

    Virtual:                                                              

      19A      0.021963    20A      0.025388    21A      0.039481  
      22A      0.041580    23A      0.043026    24A      0.049997  
      25A      0.061864    26A      0.067135    27A      0.075905  
      28A      0.085561    29A      0.089096    30A      0.096932  
      31A      0.101397    32A      0.120831    33A      0.124017  
      34A      0.124414    35A      0.125577    36A      0.126247  
      37A      0.126677    38A      0.133444    39A      0.133472  
      40A      0.133773    41A      0.137547    42A      0.140942  
      43A      0.156143    44A      0.156500    45A      0.158699  
      46A      0.171988    47A      0.178189    48A      0.187224  
      49A      0.191594    50A      0.207167    51A      0.208767  
      52A      0.211559    53A      0.211843    54A      0.219636  
      55A      0.220268    56A      0.221931    57A      0.232359  
      58A      0.232495    59A      0.241408    60A      0.261605  
      61A      0.267803    62A      0.271534    63A      0.277911  
      64A      0.298724    65A      0.301746    66A      0.305831  
      67A      0.314442    68A      0.318639    69A      0.338197  
      70A      0.359533    71A      0.361488    72A      0.370745  
      73A      0.374941    74A      0.379800    75A      0.388291  
      76A      0.392824    77A      0.397097    78A      0.417031  
      79A      0.426833    80A      0.429000    81A      0.434649  
      82A      0.439762    83A      0.448449    84A      0.451561  
      85A      0.452059    86A      0.466350    87A      0.467572  
      88A      0.480431    89A      0.481229    90A      0.486283  
      91A      0.488151    92A      0.516747    93A      0.520002  
      94A      0.535363    95A      0.537679    96A      0.542544  
      97A      0.551710    98A      0.555241    99A      0.556382  
     100A      0.568280   101A      0.576474   102A      0.578809  
     103A      0.586967   104A      0.594249   105A      0.598939  
     106A      0.605873   107A      0.611434   108A      0.616080  
     109A      0.617754   110A      0.636538   111A      0.639198  
     112A      0.652504   113A      0.669282   114A      0.671337  
     115A      0.677066   116A      0.678185   117A      0.683198  
     118A      0.683874   119A      0.710586   120A      0.714698  
     121A      0.725758   122A      0.735535   123A      0.741238  
     124A      0.755550   125A      0.762698   126A      0.767400  
     127A      0.790929   128A      0.793606   129A      0.797657  
     130A      0.809747   131A      0.809903   132A      0.811855  
     133A      0.822717   134A      0.836023   135A      0.859051  
     136A      0.860398   137A      0.871425   138A      0.885765  
     139A      0.885965   140A      0.889823   141A      0.909165  
     142A      0.919069   143A      0.926326   144A      0.954351  
     145A      0.968157   146A      0.976964   147A      0.991241  
     148A      0.998360   149A      1.010706   150A      1.014872  
     151A      1.017404   152A      1.030676   153A      1.058450  
     154A      1.077353   155A      1.078051   156A      1.084552  
     157A      1.103086   158A      1.115461   159A      1.126983  
     160A      1.131920   161A      1.140497   162A      1.149565  
     163A      1.167170   164A      1.170322   165A      1.173488  
     166A      1.196985   167A      1.210020   168A      1.217445  
     169A      1.260721   170A      1.277439   171A      1.290072  
     172A      1.296412   173A      1.302539   174A      1.311990  
     175A      1.317546   176A      1.347002   177A      1.383557  
     178A      1.385028   179A      1.398145   180A      1.451143  
     181A      1.494358   182A      1.503288   183A      1.515274  
     184A      1.518410   185A      1.540794   186A      1.574127  
     187A      1.574285   188A      1.596381   189A      1.652159  
     190A      1.660389   191A      1.671505   192A      1.705286  
     193A      1.724477   194A      1.782643   195A      1.799067  
     196A      1.807063   197A      1.864950   198A      1.881477  
     199A      1.924391   200A      1.964987   201A      2.022005  
     202A      2.025429   203A      2.039166   204A      2.072981  
     205A      2.100528   206A      2.107054   207A      2.118899  
     208A      2.126759   209A      2.130870   210A      2.135965  
     211A      2.148991   212A      2.168670   213A      2.178815  
     214A      2.184635   215A      2.229255   216A      2.252258  
     217A      2.267082   218A      2.275963   219A      2.300924  
     220A      2.308197   221A      2.326675   222A      2.332072  
     223A      2.376340   224A      2.405185   225A      2.412938  
     226A      2.417758   227A      2.455313   228A      2.470378  
     229A      2.493496   230A      2.496919   231A      2.514025  
     232A      2.525410   233A      2.545018   234A      2.545345  
     235A      2.576460   236A      2.585743   237A      2.599456  
     238A      2.633765   239A      2.695844   240A      2.734093  
     241A      2.747025   242A      2.767089   243A      2.789943  
     244A      2.794149   245A      2.803444   246A      2.828475  
     247A      2.837641   248A      2.867213   249A      2.895370  
     250A      2.932923   251A      2.949063   252A      2.952738  
     253A      2.980862   254A      3.043139   255A      3.051201  
     256A      3.069910   257A      3.075841   258A      3.131540  
     259A      3.159281   260A      3.182600   261A      3.199163  
     262A      3.208795   263A      3.213037   264A      3.334816  
     265A      3.340519   266A      3.354412   267A      3.354572  
     268A      3.362573   269A      3.458333   270A      3.494091  
     271A      3.518552   272A      3.569282   273A      3.608565  
     274A      3.706917   275A      3.726400   276A      3.768294  
     277A      3.778067   278A      3.797880   279A      3.857635  
     280A      3.870393   281A      4.003556   282A      4.109022  
     283A      4.212440   284A      4.636431   285A      4.638496  
     286A      4.695656   287A      4.771488   288A      4.879771  
     289A      5.021109   290A      5.254353   291A      5.372877  
     292A      5.494508   293A      5.610084   294A      5.715991  
     295A      5.883610   296A      6.089410   297A      6.197844  
     298A     18.255198   299A     18.589798   300A     19.300158  
     301A     25.311585   302A     25.452981  

    Final Occupation by Irrep:
              A 
    DOCC [    18 ]

  @DF-RHF Final Energy:  -224.84369627739687

   => Energetics <=

    Nuclear Repulsion Energy =            164.0866959941843959
    One-Electron Energy =                -628.9319562978894282
    Two-Electron Energy =                 240.0015640263081309
    Total Energy =                       -224.8436962773968730

Computation Completed


Properties will be evaluated at   0.000000,   0.000000,   0.000000 [a0]

Properties computed using the SCF density matrix

  Nuclear Dipole Moment: [e a0]
     X:  -102.4221      Y:  -129.0981      Z:   128.4908

  Electronic Dipole Moment: [e a0]
     X:   103.2259      Y:   129.2613      Z:  -129.8232

  Dipole Moment: [e a0]
     X:     0.8038      Y:     0.1633      Z:    -1.3324     Total:     1.5646

  Dipole Moment: [D]
     X:     2.0431      Y:     0.4150      Z:    -3.3867     Total:     3.9769


*** tstop() called on ds1 at Tue Sep 14 16:36:32 2021
Module time:
	user time   =      15.78 seconds =       0.26 minutes
	system time =       0.33 seconds =       0.01 minutes
	total time  =          4 seconds =       0.07 minutes
Total time:
	user time   =      38.27 seconds =       0.64 minutes
	system time =       0.88 seconds =       0.01 minutes
	total time  =          9 seconds =       0.15 minutes

  //>>>>>>>>>>>>>>>>>>>>>>>>>>>>>>>>>>>//
  //            Monomer B HF           //
  //<<<<<<<<<<<<<<<<<<<<<<<<<<<<<<<<<<<//


*** tstart() called on ds1
*** at Tue Sep 14 16:36:32 2021

   => Loading Basis Set <=

    Name: AUG-CC-PVDZ
    Role: ORBITAL
    Keyword: BASIS
    atoms 1-2, 10-11 entry N          line   218 file /theoryfs2/ds/csargent/miniconda3/envs/cle/share/psi4/basis/aug-cc-pvdz.gbs 
    atoms 3-6, 12-15 entry H          line    40 file /theoryfs2/ds/csargent/miniconda3/envs/cle/share/psi4/basis/aug-cc-pvdz.gbs 
    atoms 7-9, 16-18 entry C          line   182 file /theoryfs2/ds/csargent/miniconda3/envs/cle/share/psi4/basis/aug-cc-pvdz.gbs 


         ---------------------------------------------------------
                                   SCF
               by Justin Turney, Rob Parrish, Andy Simmonett
                          and Daniel G. A. Smith
                              RHF Reference
                        6 Threads,   6675 MiB Core
         ---------------------------------------------------------

  ==> Geometry <==

    Molecular point group: c1
    Full point group: C1

    Geometry (in Bohr), charge = 0, multiplicity = 1:

       Center              X                  Y                   Z               Mass       
    ------------   -----------------  -----------------  -----------------  -----------------
      Gh(N)          -4.293096210000    -3.068374310000     5.305162310000    14.003074004430
      Gh(N)          -2.158473710000    -2.926272960000     1.720374480000    14.003074004430
      Gh(H)          -0.025455870000    -6.359035750000     2.220464520000     1.007825032230
      Gh(H)          -2.685669680000    -6.532602410000     6.614459540000     1.007825032230
      Gh(H)          -4.743884230000    -0.006090060000     2.756159680000     1.007825032230
      Gh(H)          -1.410455400000    -2.247231470000     0.000000000000     1.007825032230
      Gh(C)          -1.437379910000    -5.075048480000     2.940658910000    12.000000000000
      Gh(C)          -2.769007820000    -5.146099160000     5.135228800000    12.000000000000
      Gh(C)          -3.859550360000    -1.777281980000     3.210934110000    12.000000000000
         N           33.327838530000    -3.068374310000   -10.878981410000    14.003074004430
         N           35.462461030000    -2.926272960000   -14.463769240000    14.003074004430
         H           37.595478880000    -6.359035750000   -13.963679200000     1.007825032230
         H           34.935265060000    -6.532602410000    -9.569684180000     1.007825032230
         H           32.877050520000    -0.006090060000   -13.427984050000     1.007825032230
         H           36.210479340000    -2.247231470000   -16.184143720000     1.007825032230
         C           36.183554830000    -5.075048480000   -13.243484810000    12.000000000000
         C           34.851926920000    -5.146099160000   -11.048914920000    12.000000000000
         C           33.761384390000    -1.777281980000   -12.973209610000    12.000000000000

  Running in c1 symmetry.

  Rotational constants: A =      0.03179  B =      0.00063  C =      0.00062 [cm^-1]
  Rotational constants: A =    952.90770  B =     18.99729  C =     18.66120 [MHz]
  Nuclear repulsion =  164.086696030978288

  Charge       = 0
  Multiplicity = 1
  Electrons    = 36
  Nalpha       = 18
  Nbeta        = 18

  ==> Algorithm <==

  SCF Algorithm Type is DF.
  DIIS enabled.
  MOM disabled.
  Fractional occupation disabled.
  Guess Type is SAD.
  Energy threshold   = 1.00e-10
  Density threshold  = 1.00e-10
  Integral threshold = 1.00e-12

  ==> Primary Basis <==

  Basis Set: AUG-CC-PVDZ
    Blend: AUG-CC-PVDZ
    Number of shells: 130
    Number of basis functions: 302
    Number of Cartesian functions: 322
    Spherical Harmonics?: true
    Max angular momentum: 2

   => Loading Basis Set <=

    Name: (AUG-CC-PVDZ AUX)
    Role: JKFIT
    Keyword: DF_BASIS_SCF
    atoms 1-2, 10-11 entry N          line   212 file /theoryfs2/ds/csargent/miniconda3/envs/cle/share/psi4/basis/aug-cc-pvdz-jkfit.gbs 
    atoms 3-6, 12-15 entry H          line    70 file /theoryfs2/ds/csargent/miniconda3/envs/cle/share/psi4/basis/aug-cc-pvdz-jkfit.gbs 
    atoms 7-9, 16-18 entry C          line   154 file /theoryfs2/ds/csargent/miniconda3/envs/cle/share/psi4/basis/aug-cc-pvdz-jkfit.gbs 

  ==> Integral Setup <==

  ==> DiskDFJK: Density-Fitted J/K Matrices <==

    J tasked:                  Yes
    K tasked:                  Yes
    wK tasked:                  No
    OpenMP threads:              6
    Integrals threads:           6
    Memory [MiB]:             5006
    Algorithm:                Core
    Integral Cache:           LOAD
    Schwarz Cutoff:          1E-12
    Fitting Condition:       1E-10

   => Auxiliary Basis Set <=

  Basis Set: (AUG-CC-PVDZ AUX)
    Blend: AUG-CC-PVDZ-JKFIT
    Number of shells: 376
    Number of basis functions: 1116
    Number of Cartesian functions: 1290
    Spherical Harmonics?: true
    Max angular momentum: 3

  Minimum eigenvalue in the overlap matrix is 2.1837059637E-05.
  Reciprocal condition number of the overlap matrix is 1.8394511304E-06.
    Using symmetric orthogonalization.

  ==> Pre-Iterations <==

  SCF Guess: Superposition of Atomic Densities via on-the-fly atomic UHF (no occupation information).

   -------------------------
    Irrep   Nso     Nmo    
   -------------------------
     A        302     302 
   -------------------------
    Total     302     302
   -------------------------

  ==> Iterations <==

                           Total Energy        Delta E     RMS |[F,P]|

   @DF-RHF iter SAD:  -224.55857170008267   -2.24559e+02   0.00000e+00 
   @DF-RHF iter   1:  -224.69806464750425   -1.39493e-01   1.63067e-03 DIIS
   @DF-RHF iter   2:  -224.80532026647242   -1.07256e-01   9.27384e-04 DIIS
   @DF-RHF iter   3:  -224.84168817056329   -3.63679e-02   1.74019e-04 DIIS
   @DF-RHF iter   4:  -224.84337342264462   -1.68525e-03   7.98972e-05 DIIS
   @DF-RHF iter   5:  -224.84367500335935   -3.01581e-04   1.26452e-05 DIIS
   @DF-RHF iter   6:  -224.84369234039258   -1.73370e-05   5.61871e-06 DIIS
   @DF-RHF iter   7:  -224.84369542846201   -3.08807e-06   2.19503e-06 DIIS
   @DF-RHF iter   8:  -224.84369616038012   -7.31918e-07   7.77587e-07 DIIS
   @DF-RHF iter   9:  -224.84369627117420   -1.10794e-07   1.87961e-07 DIIS
   @DF-RHF iter  10:  -224.84369627671012   -5.53592e-09   7.33125e-08 DIIS
   @DF-RHF iter  11:  -224.84369627753637   -8.26248e-10   3.26918e-08 DIIS
   @DF-RHF iter  12:  -224.84369627768862   -1.52255e-10   9.70884e-09 DIIS
   @DF-RHF iter  13:  -224.84369627770155   -1.29319e-11   3.58840e-09 DIIS
   @DF-RHF iter  14:  -224.84369627770332   -1.76215e-12   1.58275e-09 DIIS
   @DF-RHF iter  15:  -224.84369627770337   -5.68434e-14   5.27556e-10 DIIS
   @DF-RHF iter  16:  -224.84369627770369   -3.12639e-13   2.34517e-10 DIIS
   @DF-RHF iter  17:  -224.84369627770349    1.98952e-13   4.71142e-11 DIIS
  Energy and wave function converged.


  ==> Post-Iterations <==

    Orbital Energies [Eh]
    ---------------------

    Doubly Occupied:                                                      

       1A    -15.637071     2A    -15.551216     3A    -11.300916  
       4A    -11.263160     5A    -11.245653     6A     -1.352867  
       7A     -1.169098     8A     -1.012098     9A     -0.824390  
      10A     -0.803731    11A     -0.760666    12A     -0.610096  
      13A     -0.603958    14A     -0.601922    15A     -0.570942  
      16A     -0.435483    17A     -0.400464    18A     -0.320685  

    Virtual:                                                              

      19A      0.023472    20A      0.025388    21A      0.040959  
      22A      0.041580    23A      0.044558    24A      0.049997  
      25A      0.061864    26A      0.068653    27A      0.077420  
      28A      0.087030    29A      0.089096    30A      0.098471  
      31A      0.101397    32A      0.120831    33A      0.125546  
      34A      0.125577    35A      0.125891    36A      0.127730  
      37A      0.128220    38A      0.133472    39A      0.133773  
      40A      0.134957    41A      0.139054    42A      0.140942  
      43A      0.156500    44A      0.157656    45A      0.158699  
      46A      0.171988    47A      0.178189    48A      0.187224  
      49A      0.193116    50A      0.208697    51A      0.210273  
      52A      0.211559    53A      0.213349    54A      0.220268  
      55A      0.221126    56A      0.223458    57A      0.232359  
      58A      0.233999    59A      0.241408    60A      0.261605  
      61A      0.267803    62A      0.273059    63A      0.277911  
      64A      0.300217    65A      0.301746    66A      0.307347  
      67A      0.314442    68A      0.320145    69A      0.338197  
      70A      0.361040    71A      0.361488    72A      0.370745  
      73A      0.376465    74A      0.379800    75A      0.388291  
      76A      0.394334    77A      0.397097    78A      0.417031  
      79A      0.428336    80A      0.429000    81A      0.436186  
      82A      0.441255    83A      0.449966    84A      0.452059  
      85A      0.453080    86A      0.466350    87A      0.469089  
      88A      0.481229    89A      0.481930    90A      0.486283  
      91A      0.488151    92A      0.518255    93A      0.521521  
      94A      0.536867    95A      0.539202    96A      0.544042  
      97A      0.551710    98A      0.556382    99A      0.556753  
     100A      0.568280   101A      0.576474   102A      0.580339  
     103A      0.588476   104A      0.594249   105A      0.598939  
     106A      0.607377   107A      0.612950   108A      0.616080  
     109A      0.619268   110A      0.636538   111A      0.640709  
     112A      0.652504   113A      0.669282   114A      0.671337  
     115A      0.678185   116A      0.678590   117A      0.683874  
     118A      0.684696   119A      0.712083   120A      0.714698  
     121A      0.725758   122A      0.737043   123A      0.741238  
     124A      0.757068   125A      0.762698   126A      0.767400  
     127A      0.790929   128A      0.793606   129A      0.799174  
     130A      0.809747   131A      0.811424   132A      0.813370  
     133A      0.824234   134A      0.837528   135A      0.860398  
     136A      0.860559   137A      0.871425   138A      0.885765  
     139A      0.887477   140A      0.889823   141A      0.910670  
     142A      0.920582   143A      0.927840   144A      0.954351  
     145A      0.969674   146A      0.976964   147A      0.992757  
     148A      0.998360   149A      1.010706   150A      1.016380  
     151A      1.017404   152A      1.030676   153A      1.059963  
     154A      1.077353   155A      1.079565   156A      1.084552  
     157A      1.104594   158A      1.116979   159A      1.126983  
     160A      1.133437   161A      1.140497   162A      1.149565  
     163A      1.167170   164A      1.171837   165A      1.175003  
     166A      1.198499   167A      1.211531   168A      1.217445  
     169A      1.260721   170A      1.278948   171A      1.291583  
     172A      1.297928   173A      1.302539   174A      1.313510  
     175A      1.319060   176A      1.348515   177A      1.385028  
     178A      1.385072   179A      1.398145   180A      1.451143  
     181A      1.495871   182A      1.503288   183A      1.516789  
     184A      1.518410   185A      1.542306   186A      1.574127  
     187A      1.574285   188A      1.596381   189A      1.652159  
     190A      1.661905   191A      1.671505   192A      1.705286  
     193A      1.724477   194A      1.782643   195A      1.799067  
     196A      1.807063   197A      1.864950   198A      1.881477  
     199A      1.924391   200A      1.964987   201A      2.022005  
     202A      2.025429   203A      2.040674   204A      2.072981  
     205A      2.102038   206A      2.107054   207A      2.120407  
     208A      2.126759   209A      2.132380   210A      2.135965  
     211A      2.150504   212A      2.168670   213A      2.178815  
     214A      2.186145   215A      2.230776   216A      2.253761  
     217A      2.267082   218A      2.275963   219A      2.300924  
     220A      2.309711   221A      2.328182   222A      2.332072  
     223A      2.377849   224A      2.406710   225A      2.414456  
     226A      2.417758   227A      2.456828   228A      2.471888  
     229A      2.495013   230A      2.496919   231A      2.514025  
     232A      2.526926   233A      2.545345   234A      2.546526  
     235A      2.577971   236A      2.585743   237A      2.600970  
     238A      2.633765   239A      2.697365   240A      2.734093  
     241A      2.747025   242A      2.767089   243A      2.791451  
     244A      2.794149   245A      2.803444   246A      2.829981  
     247A      2.837641   248A      2.867213   249A      2.896878  
     250A      2.934441   251A      2.950578   252A      2.952738  
     253A      2.980862   254A      3.044651   255A      3.051201  
     256A      3.069910   257A      3.077353   258A      3.133052  
     259A      3.160795   260A      3.184109   261A      3.199163  
     262A      3.208795   263A      3.214550   264A      3.334816  
     265A      3.342032   266A      3.354572   267A      3.355928  
     268A      3.364090   269A      3.459849   270A      3.495602  
     271A      3.518552   272A      3.570802   273A      3.610075  
     274A      3.708433   275A      3.727915   276A      3.768294  
     277A      3.779583   278A      3.799400   279A      3.859150  
     280A      3.871906   281A      4.005069   282A      4.109022  
     283A      4.213955   284A      4.637945   285A      4.640010  
     286A      4.697168   287A      4.773005   288A      4.881288  
     289A      5.022622   290A      5.255861   291A      5.374389  
     292A      5.496018   293A      5.611598   294A      5.717511  
     295A      5.885122   296A      6.090929   297A      6.199358  
     298A     18.256711   299A     18.591310   300A     19.301672  
     301A     25.313095   302A     25.454502  

    Final Occupation by Irrep:
              A 
    DOCC [    18 ]

  @DF-RHF Final Energy:  -224.84369627770349

   => Energetics <=

    Nuclear Repulsion Energy =            164.0866960309782883
    One-Electron Energy =                -628.9319563674407618
    Two-Electron Energy =                 240.0015640587590156
    Total Energy =                       -224.8436962777034864

Computation Completed


Properties will be evaluated at   0.000000,   0.000000,   0.000000 [a0]

Properties computed using the SCF density matrix

  Nuclear Dipole Moment: [e a0]
     X:  1251.9316      Y:  -129.0981      Z:  -454.1384

  Electronic Dipole Moment: [e a0]
     X: -1251.1278      Y:   129.2613      Z:   452.8060

  Dipole Moment: [e a0]
     X:     0.8038      Y:     0.1633      Z:    -1.3324     Total:     1.5646

  Dipole Moment: [D]
     X:     2.0431      Y:     0.4150      Z:    -3.3867     Total:     3.9769


*** tstop() called on ds1 at Tue Sep 14 16:36:35 2021
Module time:
	user time   =      15.69 seconds =       0.26 minutes
	system time =       0.30 seconds =       0.01 minutes
	total time  =          3 seconds =       0.05 minutes
Total time:
	user time   =      54.16 seconds =       0.90 minutes
	system time =       1.19 seconds =       0.02 minutes
	total time  =         12 seconds =       0.20 minutes
  Constructing Basis Sets for SAPT...

   => Loading Basis Set <=

    Name: (AUG-CC-PVDZ AUX)
    Role: RIFIT
    Keyword: DF_BASIS_SAPT
    atoms 1-2, 10-11 entry N          line   158 file /theoryfs2/ds/csargent/miniconda3/envs/cle/share/psi4/basis/aug-cc-pvdz-ri.gbs 
    atoms 3-6, 12-15 entry H          line    30 file /theoryfs2/ds/csargent/miniconda3/envs/cle/share/psi4/basis/aug-cc-pvdz-ri.gbs 
    atoms 7-9, 16-18 entry C          line   112 file /theoryfs2/ds/csargent/miniconda3/envs/cle/share/psi4/basis/aug-cc-pvdz-ri.gbs 


  //>>>>>>>>>>>>>>>>>>>>>>>>>>>>>>>>>>>//
  //               SAPT0               //
  //<<<<<<<<<<<<<<<<<<<<<<<<<<<<<<<<<<<//


*** tstart() called on ds1
*** at Tue Sep 14 16:36:35 2021

        SAPT0  
    Ed Hohenstein
     6 June 2009

      Orbital Information
  --------------------------
    NSO        =       302
    NMO        =       302
    NRI        =       904
    NOCC A     =        18
    NOCC B     =        18
    FOCC A     =         5
    FOCC B     =         5
    NVIR A     =       284
    NVIR B     =       284

    Elst10,r            =    -0.000033680086 [Eh]
    Exch10              =     0.000000000000 [Eh]
    Exch10 (S^2)        =     0.000000000000 [Eh]

    Iter     Energy [mEh]          dE [mEh]         Residual      Time [s]
       1      -0.00003858       0.000038577       0.062742296             0
       2      -0.00003599      -0.000002586       0.017621520             0
       3      -0.00003930       0.000003313       0.008222120             1
       4      -0.00004022       0.000000910       0.002596596             1
       5      -0.00004011      -0.000000102       0.001400552             1
       6      -0.00004001      -0.000000099       0.000416841             1
       7      -0.00004003       0.000000019       0.000149336             1
       8      -0.00004004       0.000000004       0.000052676             1
       9      -0.00004004      -0.000000001       0.000015940             1
      10      -0.00004004      -0.000000001       0.000003041             1
      11      -0.00004004       0.000000000       0.000001031             2
      12      -0.00004004       0.000000000       0.000000306             2

    CHF Iterations converged


    Iter     Energy [mEh]          dE [mEh]         Residual      Time [s]
       1      -0.00003083       0.000030826       0.055078933             0
       2      -0.00002859      -0.000002232       0.015070476             0
       3      -0.00003089       0.000002293       0.006803057             0
       4      -0.00003159       0.000000701       0.001822009             0
       5      -0.00003155      -0.000000037       0.000980201             0
       6      -0.00003148      -0.000000069       0.000313514             0
       7      -0.00003149       0.000000013       0.000107771             1
       8      -0.00003150       0.000000003       0.000035832             1
       9      -0.00003150      -0.000000001       0.000012306             1
      10      -0.00003150      -0.000000000       0.000002711             1
      11      -0.00003150       0.000000000       0.000000941             1

    CHF Iterations converged

    Ind20,r (A<-B)      =    -0.000000040037 [Eh]
    Ind20,r (B<-A)      =    -0.000000031495 [Eh]
    Ind20,r             =    -0.000000071533 [Eh]
    Exch-Ind20,r (A<-B) =     0.000000000000 [Eh]
    Exch-Ind20,r (B<-A) =     0.000000000000 [Eh]
    Exch-Ind20,r        =     0.000000000000 [Eh]
    Disp20              =    -0.000000274180 [Eh]
    Disp20 (SS)         =    -0.000000137090 [Eh]
    Disp20 (OS)         =    -0.000000137090 [Eh]
    Exch-Disp20         =     0.000000000000 [Eh]
    Exch-Disp20 (SS)    =     0.000000000000 [Eh]
    Exch-Disp20 (OS)    =     0.000000000000 [Eh]

    SAPT Results 
  --------------------------------------------------------------------------------------------------------
    Electrostatics                 -0.03368009 [mEh]      -0.02113457 [kcal/mol]      -0.08842705 [kJ/mol]
      Elst10,r                     -0.03368009 [mEh]      -0.02113457 [kcal/mol]      -0.08842705 [kJ/mol]

    Exchange                        0.00000000 [mEh]       0.00000000 [kcal/mol]       0.00000000 [kJ/mol]
      Exch10                        0.00000000 [mEh]       0.00000000 [kcal/mol]       0.00000000 [kJ/mol]
      Exch10(S^2)                   0.00000000 [mEh]       0.00000000 [kcal/mol]       0.00000000 [kJ/mol]

    Induction                      -0.00006726 [mEh]      -0.00004221 [kcal/mol]      -0.00017660 [kJ/mol]
      Ind20,r                      -0.00007153 [mEh]      -0.00004489 [kcal/mol]      -0.00018781 [kJ/mol]
      Exch-Ind20,r                  0.00000000 [mEh]       0.00000000 [kcal/mol]       0.00000000 [kJ/mol]
      delta HF,r (2)                0.00000427 [mEh]       0.00000268 [kcal/mol]       0.00001121 [kJ/mol]

    Dispersion                     -0.00027418 [mEh]      -0.00017205 [kcal/mol]      -0.00071986 [kJ/mol]
      Disp20                       -0.00027418 [mEh]      -0.00017205 [kcal/mol]      -0.00071986 [kJ/mol]
      Exch-Disp20                   0.00000000 [mEh]       0.00000000 [kcal/mol]       0.00000000 [kJ/mol]
      Disp20 (SS)                  -0.00013709 [mEh]      -0.00008603 [kcal/mol]      -0.00035993 [kJ/mol]
      Disp20 (OS)                  -0.00013709 [mEh]      -0.00008603 [kcal/mol]      -0.00035993 [kJ/mol]
      Exch-Disp20 (SS)              0.00000000 [mEh]       0.00000000 [kcal/mol]       0.00000000 [kJ/mol]
      Exch-Disp20 (OS)              0.00000000 [mEh]       0.00000000 [kcal/mol]       0.00000000 [kJ/mol]

  Total HF                         -0.03374735 [mEh]      -0.02117678 [kcal/mol]      -0.08860365 [kJ/mol]
  Total SAPT0                      -0.03402153 [mEh]      -0.02134883 [kcal/mol]      -0.08932351 [kJ/mol]

  Special recipe for scaled SAPT0 (see Manual):
    Electrostatics sSAPT0          -0.03368009 [mEh]      -0.02113457 [kcal/mol]      -0.08842705 [kJ/mol]
    Exchange sSAPT0                 0.00000000 [mEh]       0.00000000 [kcal/mol]       0.00000000 [kJ/mol]
    Induction sSAPT0               -0.00006726 [mEh]      -0.00004221 [kcal/mol]      -0.00017660 [kJ/mol]
    Dispersion sSAPT0              -0.00027418 [mEh]      -0.00017205 [kcal/mol]      -0.00071986 [kJ/mol]
  Total sSAPT0                     -0.03402153 [mEh]      -0.02134883 [kcal/mol]      -0.08932351 [kJ/mol]
  --------------------------------------------------------------------------------------------------------

*** tstop() called on ds1 at Tue Sep 14 16:36:45 2021
Module time:
	user time   =      44.28 seconds =       0.74 minutes
	system time =       3.87 seconds =       0.06 minutes
	total time  =         10 seconds =       0.17 minutes
Total time:
	user time   =      99.08 seconds =       1.65 minutes
	system time =       5.08 seconds =       0.08 minutes
	total time  =         22 seconds =       0.37 minutes


Warning! sapt0 does not have an associated derived wavefunction.The returned wavefunction is the dimer SCF wavefunction.


    Psi4 stopped on: Tuesday, 14 September 2021 04:36PM
    Psi4 wall time for execution: 0:00:21.20

*** Psi4 exiting successfully. Buy a developer a beer!
