
    -----------------------------------------------------------------------
          Psi4: An Open-Source Ab Initio Electronic Structure Package
                               Psi4 1.4rc3 

                         Git: Rev {HEAD} 080dba6 


    D. G. A. Smith, L. A. Burns, A. C. Simmonett, R. M. Parrish,
    M. C. Schieber, R. Galvelis, P. Kraus, H. Kruse, R. Di Remigio,
    A. Alenaizan, A. M. James, S. Lehtola, J. P. Misiewicz, M. Scheurer,
    R. A. Shaw, J. B. Schriber, Y. Xie, Z. L. Glick, D. A. Sirianni,
    J. S. O'Brien, J. M. Waldrop, A. Kumar, E. G. Hohenstein,
    B. P. Pritchard, B. R. Brooks, H. F. Schaefer III, A. Yu. Sokolov,
    K. Patkowski, A. E. DePrince III, U. Bozkaya, R. A. King,
    F. A. Evangelista, J. M. Turney, T. D. Crawford, C. D. Sherrill,
    J. Chem. Phys. 152(18) 184108 (2020). https://doi.org/10.1063/5.0006002

                            Additional Code Authors
    E. T. Seidl, C. L. Janssen, E. F. Valeev, M. L. Leininger,
    J. F. Gonthier, R. M. Richard, H. R. McAlexander, M. Saitow, X. Wang,
    P. Verma, and M. H. Lechner

             Previous Authors, Complete List of Code Contributors,
                       and Citations for Specific Modules
    https://github.com/psi4/psi4/blob/master/codemeta.json
    https://github.com/psi4/psi4/graphs/contributors
    http://psicode.org/psi4manual/master/introduction.html#citing-psifour

    -----------------------------------------------------------------------


    Psi4 started on: Tuesday, 14 September 2021 04:08PM

    Process ID: 31491
    Host:       ds1
    PSIDATADIR: /theoryfs2/ds/csargent/miniconda3/envs/cle/share/psi4
    Memory:     500.0 MiB
    Threads:    6
    
  ==> Input File <==

--------------------------------------------------------------------------
# PSI4 file produced by CrystaLattE

# Generated from:               imidazole.xyz
# Psithon input for N-mer:      2mer-0+23
# Number of atoms per monomer:  [9, 9]
# Number of replicas:           1
# COM priority:                 1.320847929079e-04
# Minimum COM separations:      10.391 
# Separation priority:          5.629167905289e-04
# Minimum monomer separations:  6.409 
# Cutoff priority:              4.647923133523e-05
# Nuclear repulsion energy:     394.6587293223074

memory 7 GB

molecule Dimer_0_23 {
  N           -4.29309621      -3.06837431       5.30516231 
  N           -2.15847371      -2.92627296       1.72037448 
  H           -0.02545587      -6.35903575       2.22046452 
  H           -2.68566968      -6.53260241       6.61445954 
  H           -4.74388423      -0.00609006       2.75615968 
  H           -1.41045540      -2.24723147       0.00000000 
  C           -1.43737991      -5.07504848       2.94065891 
  C           -2.76900782      -5.14609916       5.13522880 
  C           -3.85955036      -1.77728198       3.21093411 
--
  N           -4.72980061      14.12182991      -4.69340168 
  N           -6.86442311      13.97972855      -1.10861384 
  H           -8.99744096      17.41249134      -1.60870389 
  H           -6.33722715      17.58605800      -6.00269891 
  H           -4.27901260      11.05954565      -2.14439904 
  H           -7.61244142      13.30068706       0.61176063 
  C           -7.58551691      16.12850408      -2.32889828 
  C           -6.25388901      16.19955476      -4.52346817 
  C           -5.16334647      12.83073757      -2.59917348 
units = au
no_com
no_reorient
}

set {
  e_convergence 10
  d_convergence 10
  scf_type df
  mp2_type df
  cc_type df
  freeze_core true
}

energy('sapt0/aug-cc-pvdz')

--------------------------------------------------------------------------

  Memory set to   6.519 GiB by Python driver.

Scratch directory: /scratch/csargent/psi4.31446.79897/

Scratch directory: /scratch/csargent/psi4.31446.79897/

  //>>>>>>>>>>>>>>>>>>>>>>>>>>>>>>>>>>>//
  //              Dimer HF             //
  //<<<<<<<<<<<<<<<<<<<<<<<<<<<<<<<<<<<//


*** tstart() called on ds1
*** at Tue Sep 14 16:08:08 2021

   => Loading Basis Set <=

    Name: AUG-CC-PVDZ
    Role: ORBITAL
    Keyword: BASIS
    atoms 1-2, 10-11 entry N          line   218 file /theoryfs2/ds/csargent/miniconda3/envs/cle/share/psi4/basis/aug-cc-pvdz.gbs 
    atoms 3-6, 12-15 entry H          line    40 file /theoryfs2/ds/csargent/miniconda3/envs/cle/share/psi4/basis/aug-cc-pvdz.gbs 
    atoms 7-9, 16-18 entry C          line   182 file /theoryfs2/ds/csargent/miniconda3/envs/cle/share/psi4/basis/aug-cc-pvdz.gbs 


         ---------------------------------------------------------
                                   SCF
               by Justin Turney, Rob Parrish, Andy Simmonett
                          and Daniel G. A. Smith
                              RHF Reference
                        6 Threads,   6675 MiB Core
         ---------------------------------------------------------

  ==> Geometry <==

    Molecular point group: c1
    Full point group: C1

    Geometry (in Bohr), charge = 0, multiplicity = 1:

       Center              X                  Y                   Z               Mass       
    ------------   -----------------  -----------------  -----------------  -----------------
         N           -4.293096210000    -3.068374310000     5.305162310000    14.003074004430
         N           -2.158473710000    -2.926272960000     1.720374480000    14.003074004430
         H           -0.025455870000    -6.359035750000     2.220464520000     1.007825032230
         H           -2.685669680000    -6.532602410000     6.614459540000     1.007825032230
         H           -4.743884230000    -0.006090060000     2.756159680000     1.007825032230
         H           -1.410455400000    -2.247231470000     0.000000000000     1.007825032230
         C           -1.437379910000    -5.075048480000     2.940658910000    12.000000000000
         C           -2.769007820000    -5.146099160000     5.135228800000    12.000000000000
         C           -3.859550360000    -1.777281980000     3.210934110000    12.000000000000
         N           -4.729800610000    14.121829910000    -4.693401680000    14.003074004430
         N           -6.864423110000    13.979728550000    -1.108613840000    14.003074004430
         H           -8.997440960000    17.412491340000    -1.608703890000     1.007825032230
         H           -6.337227150000    17.586058000000    -6.002698910000     1.007825032230
         H           -4.279012600000    11.059545650000    -2.144399040000     1.007825032230
         H           -7.612441420000    13.300687060000     0.611760630000     1.007825032230
         C           -7.585516910000    16.128504080000    -2.328898280000    12.000000000000
         C           -6.253889010000    16.199554760000    -4.523468170000    12.000000000000
         C           -5.163346470000    12.830737570000    -2.599173480000    12.000000000000

  Running in c1 symmetry.

  Rotational constants: A =      0.02854  B =      0.00321  C =      0.00290 [cm^-1]
  Rotational constants: A =    855.56576  B =     96.29361  C =     86.98416 [MHz]
  Nuclear repulsion =  394.658729263189343

  Charge       = 0
  Multiplicity = 1
  Electrons    = 72
  Nalpha       = 36
  Nbeta        = 36

  ==> Algorithm <==

  SCF Algorithm Type is DF.
  DIIS enabled.
  MOM disabled.
  Fractional occupation disabled.
  Guess Type is SAD.
  Energy threshold   = 1.00e-10
  Density threshold  = 1.00e-10
  Integral threshold = 1.00e-12

  ==> Primary Basis <==

  Basis Set: AUG-CC-PVDZ
    Blend: AUG-CC-PVDZ
    Number of shells: 130
    Number of basis functions: 302
    Number of Cartesian functions: 322
    Spherical Harmonics?: true
    Max angular momentum: 2

   => Loading Basis Set <=

    Name: (AUG-CC-PVDZ AUX)
    Role: JKFIT
    Keyword: DF_BASIS_SCF
    atoms 1-2, 10-11 entry N          line   212 file /theoryfs2/ds/csargent/miniconda3/envs/cle/share/psi4/basis/aug-cc-pvdz-jkfit.gbs 
    atoms 3-6, 12-15 entry H          line    70 file /theoryfs2/ds/csargent/miniconda3/envs/cle/share/psi4/basis/aug-cc-pvdz-jkfit.gbs 
    atoms 7-9, 16-18 entry C          line   154 file /theoryfs2/ds/csargent/miniconda3/envs/cle/share/psi4/basis/aug-cc-pvdz-jkfit.gbs 

  ==> Integral Setup <==

  ==> DiskDFJK: Density-Fitted J/K Matrices <==

    J tasked:                  Yes
    K tasked:                  Yes
    wK tasked:                  No
    OpenMP threads:              6
    Integrals threads:           6
    Memory [MiB]:             5006
    Algorithm:                Core
    Integral Cache:           SAVE
    Schwarz Cutoff:          1E-12
    Fitting Condition:       1E-10

   => Auxiliary Basis Set <=

  Basis Set: (AUG-CC-PVDZ AUX)
    Blend: AUG-CC-PVDZ-JKFIT
    Number of shells: 376
    Number of basis functions: 1116
    Number of Cartesian functions: 1290
    Spherical Harmonics?: true
    Max angular momentum: 3

  Minimum eigenvalue in the overlap matrix is 2.0899701741E-05.
  Reciprocal condition number of the overlap matrix is 1.7588349702E-06.
    Using symmetric orthogonalization.

  ==> Pre-Iterations <==

  SCF Guess: Superposition of Atomic Densities via on-the-fly atomic UHF (no occupation information).

   -------------------------
    Irrep   Nso     Nmo    
   -------------------------
     A        302     302 
   -------------------------
    Total     302     302
   -------------------------

  ==> Iterations <==

                           Total Energy        Delta E     RMS |[F,P]|

   @DF-RHF iter SAD:  -449.11715728651393   -4.49117e+02   0.00000e+00 
   @DF-RHF iter   1:  -449.39645184762350   -2.79295e-01   2.30575e-03 DIIS
   @DF-RHF iter   2:  -449.61082907451714   -2.14377e-01   1.31153e-03 DIIS
   @DF-RHF iter   3:  -449.68354170679459   -7.27126e-02   2.45599e-04 DIIS
   @DF-RHF iter   4:  -449.68690513093634   -3.36342e-03   1.12594e-04 DIIS
   @DF-RHF iter   5:  -449.68750383021768   -5.98699e-04   1.78717e-05 DIIS
   @DF-RHF iter   6:  -449.68753839560924   -3.45654e-05   7.94914e-06 DIIS
   @DF-RHF iter   7:  -449.68754456744443   -6.17184e-06   3.11396e-06 DIIS
   @DF-RHF iter   8:  -449.68754604120221   -1.47376e-06   1.10283e-06 DIIS
   @DF-RHF iter   9:  -449.68754626467376   -2.23472e-07   2.72084e-07 DIIS
   @DF-RHF iter  10:  -449.68754627592790   -1.12541e-08   1.09405e-07 DIIS
   @DF-RHF iter  11:  -449.68754627774774   -1.81984e-09   4.63192e-08 DIIS
   @DF-RHF iter  12:  -449.68754627806578   -3.18039e-10   1.41115e-08 DIIS
   @DF-RHF iter  13:  -449.68754627809324   -2.74554e-11   5.14383e-09 DIIS
   @DF-RHF iter  14:  -449.68754627809693   -3.69482e-12   2.27464e-09 DIIS
   @DF-RHF iter  15:  -449.68754627809699   -5.68434e-14   7.53084e-10 DIIS
   @DF-RHF iter  16:  -449.68754627809761   -6.25278e-13   3.33534e-10 DIIS
   @DF-RHF iter  17:  -449.68754627809710    5.11591e-13   6.62663e-11 DIIS
  Energy and wave function converged.


  ==> Post-Iterations <==

    Orbital Energies [Eh]
    ---------------------

    Doubly Occupied:                                                      

       1A    -15.638905     2A    -15.638905     3A    -15.553317  
       4A    -15.553317     5A    -11.303028     6A    -11.303028  
       7A    -11.264914     8A    -11.264914     9A    -11.247388  
      10A    -11.247388    11A     -1.354760    12A     -1.354760  
      13A     -1.171030    14A     -1.171029    15A     -1.013974  
      16A     -1.013974    17A     -0.826269    18A     -0.826268  
      19A     -0.805575    20A     -0.805574    21A     -0.762636  
      22A     -0.762635    23A     -0.611984    24A     -0.611983  
      25A     -0.605839    26A     -0.605839    27A     -0.603712  
      28A     -0.603712    29A     -0.572916    30A     -0.572914  
      31A     -0.437580    32A     -0.437580    33A     -0.402372  
      34A     -0.402372    35A     -0.322534    36A     -0.322533  

    Virtual:                                                              

      37A      0.018021    38A      0.026743    39A      0.037216  
      40A      0.044570    41A      0.049879    42A      0.055586  
      43A      0.061453    44A      0.066047    45A      0.084891  
      46A      0.088832    47A      0.098365    48A      0.107286  
      49A      0.116451    50A      0.121684    51A      0.124241  
      52A      0.124411    53A      0.127647    54A      0.130330  
      55A      0.135075    56A      0.138297    57A      0.140184  
      58A      0.140876    59A      0.154607    60A      0.154924  
      61A      0.170334    62A      0.171018    63A      0.173390  
      64A      0.174517    65A      0.176361    66A      0.182274  
      67A      0.190753    68A      0.196486    69A      0.209555  
      70A      0.210127    71A      0.216308    72A      0.222485  
      73A      0.229401    74A      0.234509    75A      0.241156  
      76A      0.242518    77A      0.257860    78A      0.262811  
      79A      0.266309    80A      0.269000    81A      0.279080  
      82A      0.282768    83A      0.298451    84A      0.305145  
      85A      0.317281    86A      0.319279    87A      0.337084  
      88A      0.337989    89A      0.360412    90A      0.361942  
      91A      0.369337    92A      0.372692    93A      0.383599  
      94A      0.384235    95A      0.388354    96A      0.388526  
      97A      0.396201    98A      0.398122    99A      0.417177  
     100A      0.424702   101A      0.428709   102A      0.430760  
     103A      0.450696   104A      0.450937   105A      0.464357  
     106A      0.464595   107A      0.475986   108A      0.483758  
     109A      0.485396   110A      0.485659   111A      0.487754  
     112A      0.490090   113A      0.550128   114A      0.557049  
     115A      0.557920   116A      0.561828   117A      0.566216  
     118A      0.567997   119A      0.573039   120A      0.578874  
     121A      0.592874   122A      0.593286   123A      0.600128  
     124A      0.600880   125A      0.614729   126A      0.614927  
     127A      0.634410   128A      0.637526   129A      0.650450  
     130A      0.650957   131A      0.666740   132A      0.668718  
     133A      0.669460   134A      0.669803   135A      0.676883  
     136A      0.677632   137A      0.682258   138A      0.682668  
     139A      0.712938   140A      0.713286   141A      0.723904  
     142A      0.724894   143A      0.738469   144A      0.742735  
     145A      0.760056   146A      0.763356   147A      0.765492  
     148A      0.772944   149A      0.789861   150A      0.790844  
     151A      0.791054   152A      0.792058   153A      0.808399  
     154A      0.808744   155A      0.858195   156A      0.859437  
     157A      0.871925   158A      0.875847   159A      0.884387  
     160A      0.884524   161A      0.888264   162A      0.888337  
     163A      0.952978   164A      0.953310   165A      0.976410  
     166A      0.977118   167A      0.997320   168A      0.998027  
     169A      1.009168   170A      1.009607   171A      1.015872  
     172A      1.016197   173A      1.028599   174A      1.029633  
     175A      1.076784   176A      1.079449   177A      1.083132  
     178A      1.083757   179A      1.126201   180A      1.127196  
     181A      1.136768   182A      1.142405   183A      1.147752  
     184A      1.148906   185A      1.166815   186A      1.167870  
     187A      1.215349   188A      1.215745   189A      1.259534  
     190A      1.260045   191A      1.300585   192A      1.301273  
     193A      1.385655   194A      1.386424   195A      1.397018  
     196A      1.400567   197A      1.449208   198A      1.449770  
     199A      1.501941   200A      1.508961   201A      1.516670  
     202A      1.516849   203A      1.571695   204A      1.572613  
     205A      1.573884   206A      1.575425   207A      1.596805  
     208A      1.598194   209A      1.650305   210A      1.650407  
     211A      1.669582   212A      1.671253   213A      1.702996  
     214A      1.707603   215A      1.722826   216A      1.722965  
     217A      1.781055   218A      1.781773   219A      1.799187  
     220A      1.800476   221A      1.805187   222A      1.806207  
     223A      1.862936   224A      1.865264   225A      1.880883  
     226A      1.882631   227A      1.922344   228A      1.922508  
     229A      1.962913   230A      1.963847   231A      2.019463  
     232A      2.021355   233A      2.023822   234A      2.026078  
     235A      2.071309   236A      2.071374   237A      2.105082  
     238A      2.105748   239A      2.124909   240A      2.125536  
     241A      2.134134   242A      2.134666   243A      2.166808  
     244A      2.167027   245A      2.177138   246A      2.177593  
     247A      2.265800   248A      2.266287   249A      2.273819  
     250A      2.274167   251A      2.298948   252A      2.299669  
     253A      2.332097   254A      2.332123   255A      2.416199  
     256A      2.416208   257A      2.494927   258A      2.498924  
     259A      2.512158   260A      2.513962   261A      2.543273  
     262A      2.547350   263A      2.584077   264A      2.584875  
     265A      2.632041   266A      2.632445   267A      2.732573  
     268A      2.732666   269A      2.744784   270A      2.745736  
     271A      2.768261   272A      2.769929   273A      2.792518  
     274A      2.793573   275A      2.801086   276A      2.802340  
     277A      2.836128   278A      2.837018   279A      2.865368  
     280A      2.865381   281A      2.951514   282A      2.951771  
     283A      2.978835   284A      2.979043   285A      3.049382  
     286A      3.049575   287A      3.067971   288A      3.068655  
     289A      3.198728   290A      3.204802   291A      3.207461  
     292A      3.211908   293A      3.333421   294A      3.334294  
     295A      3.352418   296A      3.353600   297A      3.516578  
     298A      3.517280   299A      3.768523   300A      3.771367  
     301A      4.107682   302A      4.107962  

    Final Occupation by Irrep:
              A 
    DOCC [    36 ]

  @DF-RHF Final Energy:  -449.68754627809710

   => Energetics <=

    Nuclear Repulsion Energy =            394.6587292631893433
    One-Electron Energy =               -1390.6976282291232110
    Two-Electron Energy =                 546.3513526878367657
    Total Energy =                       -449.6875462780971020

Computation Completed


Properties will be evaluated at   0.000000,   0.000000,   0.000000 [a0]

Properties computed using the SCF density matrix

  Nuclear Dipole Moment: [e a0]
     X:  -324.8243      Y:   397.9244      Z:    22.0234

  Electronic Dipole Moment: [e a0]
     X:   324.8243      Y:  -397.9244      Z:   -22.0234

  Dipole Moment: [e a0]
     X:    -0.0000      Y:    -0.0000      Z:    -0.0000     Total:     0.0000

  Dipole Moment: [D]
     X:    -0.0000      Y:    -0.0000      Z:    -0.0000     Total:     0.0000


*** tstop() called on ds1 at Tue Sep 14 16:08:13 2021
Module time:
	user time   =      27.43 seconds =       0.46 minutes
	system time =       0.84 seconds =       0.01 minutes
	total time  =          5 seconds =       0.08 minutes
Total time:
	user time   =      27.43 seconds =       0.46 minutes
	system time =       0.84 seconds =       0.01 minutes
	total time  =          5 seconds =       0.08 minutes

  //>>>>>>>>>>>>>>>>>>>>>>>>>>>>>>>>>>>//
  //            Monomer A HF           //
  //<<<<<<<<<<<<<<<<<<<<<<<<<<<<<<<<<<<//


*** tstart() called on ds1
*** at Tue Sep 14 16:08:13 2021

   => Loading Basis Set <=

    Name: AUG-CC-PVDZ
    Role: ORBITAL
    Keyword: BASIS
    atoms 1-2, 10-11 entry N          line   218 file /theoryfs2/ds/csargent/miniconda3/envs/cle/share/psi4/basis/aug-cc-pvdz.gbs 
    atoms 3-6, 12-15 entry H          line    40 file /theoryfs2/ds/csargent/miniconda3/envs/cle/share/psi4/basis/aug-cc-pvdz.gbs 
    atoms 7-9, 16-18 entry C          line   182 file /theoryfs2/ds/csargent/miniconda3/envs/cle/share/psi4/basis/aug-cc-pvdz.gbs 


         ---------------------------------------------------------
                                   SCF
               by Justin Turney, Rob Parrish, Andy Simmonett
                          and Daniel G. A. Smith
                              RHF Reference
                        6 Threads,   6675 MiB Core
         ---------------------------------------------------------

  ==> Geometry <==

    Molecular point group: c1
    Full point group: C1

    Geometry (in Bohr), charge = 0, multiplicity = 1:

       Center              X                  Y                   Z               Mass       
    ------------   -----------------  -----------------  -----------------  -----------------
         N           -4.293096210000    -3.068374310000     5.305162310000    14.003074004430
         N           -2.158473710000    -2.926272960000     1.720374480000    14.003074004430
         H           -0.025455870000    -6.359035750000     2.220464520000     1.007825032230
         H           -2.685669680000    -6.532602410000     6.614459540000     1.007825032230
         H           -4.743884230000    -0.006090060000     2.756159680000     1.007825032230
         H           -1.410455400000    -2.247231470000     0.000000000000     1.007825032230
         C           -1.437379910000    -5.075048480000     2.940658910000    12.000000000000
         C           -2.769007820000    -5.146099160000     5.135228800000    12.000000000000
         C           -3.859550360000    -1.777281980000     3.210934110000    12.000000000000
      Gh(N)          -4.729800610000    14.121829910000    -4.693401680000    14.003074004430
      Gh(N)          -6.864423110000    13.979728550000    -1.108613840000    14.003074004430
      Gh(H)          -8.997440960000    17.412491340000    -1.608703890000     1.007825032230
      Gh(H)          -6.337227150000    17.586058000000    -6.002698910000     1.007825032230
      Gh(H)          -4.279012600000    11.059545650000    -2.144399040000     1.007825032230
      Gh(H)          -7.612441420000    13.300687060000     0.611760630000     1.007825032230
      Gh(C)          -7.585516910000    16.128504080000    -2.328898280000    12.000000000000
      Gh(C)          -6.253889010000    16.199554760000    -4.523468170000    12.000000000000
      Gh(C)          -5.163346470000    12.830737570000    -2.599173480000    12.000000000000

  Running in c1 symmetry.

  Rotational constants: A =      0.02854  B =      0.00321  C =      0.00290 [cm^-1]
  Rotational constants: A =    855.56576  B =     96.29361  C =     86.98416 [MHz]
  Nuclear repulsion =  164.086695994184396

  Charge       = 0
  Multiplicity = 1
  Electrons    = 36
  Nalpha       = 18
  Nbeta        = 18

  ==> Algorithm <==

  SCF Algorithm Type is DF.
  DIIS enabled.
  MOM disabled.
  Fractional occupation disabled.
  Guess Type is SAD.
  Energy threshold   = 1.00e-10
  Density threshold  = 1.00e-10
  Integral threshold = 1.00e-12

  ==> Primary Basis <==

  Basis Set: AUG-CC-PVDZ
    Blend: AUG-CC-PVDZ
    Number of shells: 130
    Number of basis functions: 302
    Number of Cartesian functions: 322
    Spherical Harmonics?: true
    Max angular momentum: 2

   => Loading Basis Set <=

    Name: (AUG-CC-PVDZ AUX)
    Role: JKFIT
    Keyword: DF_BASIS_SCF
    atoms 1-2, 10-11 entry N          line   212 file /theoryfs2/ds/csargent/miniconda3/envs/cle/share/psi4/basis/aug-cc-pvdz-jkfit.gbs 
    atoms 3-6, 12-15 entry H          line    70 file /theoryfs2/ds/csargent/miniconda3/envs/cle/share/psi4/basis/aug-cc-pvdz-jkfit.gbs 
    atoms 7-9, 16-18 entry C          line   154 file /theoryfs2/ds/csargent/miniconda3/envs/cle/share/psi4/basis/aug-cc-pvdz-jkfit.gbs 

  ==> Integral Setup <==

  ==> DiskDFJK: Density-Fitted J/K Matrices <==

    J tasked:                  Yes
    K tasked:                  Yes
    wK tasked:                  No
    OpenMP threads:              6
    Integrals threads:           6
    Memory [MiB]:             5006
    Algorithm:                Core
    Integral Cache:           LOAD
    Schwarz Cutoff:          1E-12
    Fitting Condition:       1E-10

   => Auxiliary Basis Set <=

  Basis Set: (AUG-CC-PVDZ AUX)
    Blend: AUG-CC-PVDZ-JKFIT
    Number of shells: 376
    Number of basis functions: 1116
    Number of Cartesian functions: 1290
    Spherical Harmonics?: true
    Max angular momentum: 3

  Minimum eigenvalue in the overlap matrix is 2.0899701741E-05.
  Reciprocal condition number of the overlap matrix is 1.7588349702E-06.
    Using symmetric orthogonalization.

  ==> Pre-Iterations <==

  SCF Guess: Superposition of Atomic Densities via on-the-fly atomic UHF (no occupation information).

   -------------------------
    Irrep   Nso     Nmo    
   -------------------------
     A        302     302 
   -------------------------
    Total     302     302
   -------------------------

  ==> Iterations <==

                           Total Energy        Delta E     RMS |[F,P]|

   @DF-RHF iter SAD:  -224.55857175245490   -2.24559e+02   0.00000e+00 
   @DF-RHF iter   1:  -224.69807045949082   -1.39499e-01   1.63070e-03 DIIS
   @DF-RHF iter   2:  -224.80532668810847   -1.07256e-01   9.27395e-04 DIIS
   @DF-RHF iter   3:  -224.84169502501146   -3.63683e-02   1.74024e-04 DIIS
   @DF-RHF iter   4:  -224.84338033036045   -1.68531e-03   7.98977e-05 DIIS
   @DF-RHF iter   5:  -224.84368191249501   -3.01582e-04   1.26452e-05 DIIS
   @DF-RHF iter   6:  -224.84369924829795   -1.73358e-05   5.61842e-06 DIIS
   @DF-RHF iter   7:  -224.84370233590971   -3.08761e-06   2.19492e-06 DIIS
   @DF-RHF iter   8:  -224.84370306774477   -7.31835e-07   7.77580e-07 DIIS
   @DF-RHF iter   9:  -224.84370317853376   -1.10789e-07   1.87955e-07 DIIS
   @DF-RHF iter  10:  -224.84370318406923   -5.53547e-09   7.33107e-08 DIIS
   @DF-RHF iter  11:  -224.84370318489536   -8.26134e-10   3.26897e-08 DIIS
   @DF-RHF iter  12:  -224.84370318504725   -1.51886e-10   9.70898e-09 DIIS
   @DF-RHF iter  13:  -224.84370318506021   -1.29603e-11   3.58839e-09 DIIS
   @DF-RHF iter  14:  -224.84370318506220   -1.98952e-12   1.58266e-09 DIIS
   @DF-RHF iter  15:  -224.84370318506248   -2.84217e-13   5.27547e-10 DIIS
   @DF-RHF iter  16:  -224.84370318506237    1.13687e-13   2.34514e-10 DIIS
   @DF-RHF iter  17:  -224.84370318506265   -2.84217e-13   4.71160e-11 DIIS
  Energy and wave function converged.


  ==> Post-Iterations <==

    Orbital Energies [Eh]
    ---------------------

    Doubly Occupied:                                                      

       1A    -15.637071     2A    -15.551212     3A    -11.300902  
       4A    -11.263160     5A    -11.245653     6A     -1.352867  
       7A     -1.169099     8A     -1.012098     9A     -0.824389  
      10A     -0.803731    11A     -0.760665    12A     -0.610096  
      13A     -0.603958    14A     -0.601922    15A     -0.570943  
      16A     -0.435483    17A     -0.400465    18A     -0.320685  

    Virtual:                                                              

      19A      0.017888    20A      0.025871    21A      0.036556  
      22A      0.041778    23A      0.048216    24A      0.054402  
      25A      0.059174    26A      0.072270    27A      0.075016  
      28A      0.085240    29A      0.092917    30A      0.095369  
      31A      0.107909    32A      0.119163    33A      0.121778  
      34A      0.122987    35A      0.124559    36A      0.126025  
      37A      0.130037    38A      0.131616    39A      0.135338  
      40A      0.138007    41A      0.139259    42A      0.149190  
      43A      0.155535    44A      0.158545    45A      0.173293  
      46A      0.175993    47A      0.180558    48A      0.191126  
      49A      0.196283    50A      0.206314    51A      0.207051  
      52A      0.211226    53A      0.212065    54A      0.219861  
      55A      0.223226    56A      0.227775    57A      0.234673  
      58A      0.239303    59A      0.245271    60A      0.262310  
      61A      0.266461    62A      0.275465    63A      0.281533  
      64A      0.301122    65A      0.303888    66A      0.310285  
      67A      0.320279    68A      0.327460    69A      0.339806  
      70A      0.358608    71A      0.363918    72A      0.372944  
      73A      0.376643    74A      0.383625    75A      0.389510  
      76A      0.392916    77A      0.398838    78A      0.422488  
      79A      0.426601    80A      0.433218    81A      0.434472  
      82A      0.441174    83A      0.447460    84A      0.450816  
      85A      0.452694    86A      0.466310    87A      0.470723  
      88A      0.480450    89A      0.483793    90A      0.486561  
      91A      0.489287    92A      0.519994    93A      0.521514  
      94A      0.533981    95A      0.537278    96A      0.543962  
      97A      0.553121    98A      0.559573    99A      0.563867  
     100A      0.569233   101A      0.577501   102A      0.579485  
     103A      0.585650   104A      0.594819   105A      0.601428  
     106A      0.606286   107A      0.611162   108A      0.616546  
     109A      0.617185   110A      0.637406   111A      0.640015  
     112A      0.652915   113A      0.669680   114A      0.671331  
     115A      0.677222   116A      0.679481   117A      0.683148  
     118A      0.684329   119A      0.711335   120A      0.714867  
     121A      0.726077   122A      0.735863   123A      0.743303  
     124A      0.756053   125A      0.764762   126A      0.772818  
     127A      0.791581   128A      0.793641   129A      0.797609  
     130A      0.808587   131A      0.810541   132A      0.813719  
     133A      0.822965   134A      0.835170   135A      0.858900  
     136A      0.860657   137A      0.875512   138A      0.884836  
     139A      0.887410   140A      0.889841   141A      0.909504  
     142A      0.918372   143A      0.925185   144A      0.954980  
     145A      0.967425   146A      0.978679   147A      0.989944  
     148A      0.999683   149A      1.011166   150A      1.014465  
     151A      1.017886   152A      1.031062   153A      1.058327  
     154A      1.079540   155A      1.080120   156A      1.085314  
     157A      1.103197   158A      1.114598   159A      1.128521  
     160A      1.131207   161A      1.141595   162A      1.150104  
     163A      1.169035   164A      1.170503   165A      1.172417  
     166A      1.197220   167A      1.215045   168A      1.217697  
     169A      1.261638   170A      1.277999   171A      1.288833  
     172A      1.296155   173A      1.302913   174A      1.311716  
     175A      1.316448   176A      1.345810   177A      1.382916  
     178A      1.388455   179A      1.400805   180A      1.451454  
     181A      1.494398   182A      1.507644   183A      1.517343  
     184A      1.518755   185A      1.539898   186A      1.575018  
     187A      1.575488   188A      1.599309   189A      1.652237  
     190A      1.659334   191A      1.672181   192A      1.707129  
     193A      1.725114   194A      1.783201   195A      1.801760  
     196A      1.807309   197A      1.866121   198A      1.883840  
     199A      1.924443   200A      1.965231   201A      2.022268  
     202A      2.026219   203A      2.039616   204A      2.073151  
     205A      2.099005   206A      2.107171   207A      2.121711  
     208A      2.126868   209A      2.131746   210A      2.136209  
     211A      2.148656   212A      2.168773   213A      2.179268  
     214A      2.184010   215A      2.228502   216A      2.252366  
     217A      2.268039   218A      2.276038   219A      2.301264  
     220A      2.308210   221A      2.325899   222A      2.334152  
     223A      2.376682   224A      2.404685   225A      2.412507  
     226A      2.417887   227A      2.457102   228A      2.473276  
     229A      2.494780   230A      2.499354   231A      2.515088  
     232A      2.524032   233A      2.543703   234A      2.547304  
     235A      2.575972   236A      2.586296   237A      2.598559  
     238A      2.634155   239A      2.695172   240A      2.734393  
     241A      2.747286   242A      2.770872   243A      2.788285  
     244A      2.794898   245A      2.803645   246A      2.828006  
     247A      2.838411   248A      2.867315   249A      2.894166  
     250A      2.932250   251A      2.948410   252A      2.953528  
     253A      2.980929   254A      3.042400   255A      3.051317  
     256A      3.070093   257A      3.074999   258A      3.131143  
     259A      3.157919   260A      3.181397   261A      3.204622  
     262A      3.210359   263A      3.214246   264A      3.335762  
     265A      3.343815   266A      3.353447   267A      3.355031  
     268A      3.362426   269A      3.457471   270A      3.496018  
     271A      3.518855   272A      3.568627   273A      3.607860  
     274A      3.706095   275A      3.726557   276A      3.771955  
     277A      3.777125   278A      3.796999   279A      3.857092  
     280A      3.869148   281A      4.004579   282A      4.109582  
     283A      4.214315   284A      4.636038   285A      4.637663  
     286A      4.697557   287A      4.770288   288A      4.882715  
     289A      5.022180   290A      5.253180   291A      5.372056  
     292A      5.494843   293A      5.609668   294A      5.715610  
     295A      5.882489   296A      6.088584   297A      6.196901  
     298A     18.254645   299A     18.590286   300A     19.299433  
     301A     25.310744   302A     25.451938  

    Final Occupation by Irrep:
              A 
    DOCC [    18 ]

  @DF-RHF Final Energy:  -224.84370318506265

   => Energetics <=

    Nuclear Repulsion Energy =            164.0866959941843959
    One-Electron Energy =                -628.9319986944075254
    Two-Electron Energy =                 240.0015995151604500
    Total Energy =                       -224.8437031850626511

Computation Completed


Properties will be evaluated at   0.000000,   0.000000,   0.000000 [a0]

Properties computed using the SCF density matrix

  Nuclear Dipole Moment: [e a0]
     X:  -102.4221      Y:  -129.0981      Z:   128.4908

  Electronic Dipole Moment: [e a0]
     X:   103.2259      Y:   129.2613      Z:  -129.8232

  Dipole Moment: [e a0]
     X:     0.8038      Y:     0.1633      Z:    -1.3324     Total:     1.5647

  Dipole Moment: [D]
     X:     2.0431      Y:     0.4150      Z:    -3.3867     Total:     3.9769


*** tstop() called on ds1 at Tue Sep 14 16:08:17 2021
Module time:
	user time   =      19.41 seconds =       0.32 minutes
	system time =       0.38 seconds =       0.01 minutes
	total time  =          4 seconds =       0.07 minutes
Total time:
	user time   =      47.00 seconds =       0.78 minutes
	system time =       1.22 seconds =       0.02 minutes
	total time  =          9 seconds =       0.15 minutes

  //>>>>>>>>>>>>>>>>>>>>>>>>>>>>>>>>>>>//
  //            Monomer B HF           //
  //<<<<<<<<<<<<<<<<<<<<<<<<<<<<<<<<<<<//


*** tstart() called on ds1
*** at Tue Sep 14 16:08:17 2021

   => Loading Basis Set <=

    Name: AUG-CC-PVDZ
    Role: ORBITAL
    Keyword: BASIS
    atoms 1-2, 10-11 entry N          line   218 file /theoryfs2/ds/csargent/miniconda3/envs/cle/share/psi4/basis/aug-cc-pvdz.gbs 
    atoms 3-6, 12-15 entry H          line    40 file /theoryfs2/ds/csargent/miniconda3/envs/cle/share/psi4/basis/aug-cc-pvdz.gbs 
    atoms 7-9, 16-18 entry C          line   182 file /theoryfs2/ds/csargent/miniconda3/envs/cle/share/psi4/basis/aug-cc-pvdz.gbs 


         ---------------------------------------------------------
                                   SCF
               by Justin Turney, Rob Parrish, Andy Simmonett
                          and Daniel G. A. Smith
                              RHF Reference
                        6 Threads,   6675 MiB Core
         ---------------------------------------------------------

  ==> Geometry <==

    Molecular point group: c1
    Full point group: C1

    Geometry (in Bohr), charge = 0, multiplicity = 1:

       Center              X                  Y                   Z               Mass       
    ------------   -----------------  -----------------  -----------------  -----------------
      Gh(N)          -4.293096210000    -3.068374310000     5.305162310000    14.003074004430
      Gh(N)          -2.158473710000    -2.926272960000     1.720374480000    14.003074004430
      Gh(H)          -0.025455870000    -6.359035750000     2.220464520000     1.007825032230
      Gh(H)          -2.685669680000    -6.532602410000     6.614459540000     1.007825032230
      Gh(H)          -4.743884230000    -0.006090060000     2.756159680000     1.007825032230
      Gh(H)          -1.410455400000    -2.247231470000     0.000000000000     1.007825032230
      Gh(C)          -1.437379910000    -5.075048480000     2.940658910000    12.000000000000
      Gh(C)          -2.769007820000    -5.146099160000     5.135228800000    12.000000000000
      Gh(C)          -3.859550360000    -1.777281980000     3.210934110000    12.000000000000
         N           -4.729800610000    14.121829910000    -4.693401680000    14.003074004430
         N           -6.864423110000    13.979728550000    -1.108613840000    14.003074004430
         H           -8.997440960000    17.412491340000    -1.608703890000     1.007825032230
         H           -6.337227150000    17.586058000000    -6.002698910000     1.007825032230
         H           -4.279012600000    11.059545650000    -2.144399040000     1.007825032230
         H           -7.612441420000    13.300687060000     0.611760630000     1.007825032230
         C           -7.585516910000    16.128504080000    -2.328898280000    12.000000000000
         C           -6.253889010000    16.199554760000    -4.523468170000    12.000000000000
         C           -5.163346470000    12.830737570000    -2.599173480000    12.000000000000

  Running in c1 symmetry.

  Rotational constants: A =      0.02854  B =      0.00321  C =      0.00290 [cm^-1]
  Rotational constants: A =    855.56576  B =     96.29361  C =     86.98416 [MHz]
  Nuclear repulsion =  164.086695798676544

  Charge       = 0
  Multiplicity = 1
  Electrons    = 36
  Nalpha       = 18
  Nbeta        = 18

  ==> Algorithm <==

  SCF Algorithm Type is DF.
  DIIS enabled.
  MOM disabled.
  Fractional occupation disabled.
  Guess Type is SAD.
  Energy threshold   = 1.00e-10
  Density threshold  = 1.00e-10
  Integral threshold = 1.00e-12

  ==> Primary Basis <==

  Basis Set: AUG-CC-PVDZ
    Blend: AUG-CC-PVDZ
    Number of shells: 130
    Number of basis functions: 302
    Number of Cartesian functions: 322
    Spherical Harmonics?: true
    Max angular momentum: 2

   => Loading Basis Set <=

    Name: (AUG-CC-PVDZ AUX)
    Role: JKFIT
    Keyword: DF_BASIS_SCF
    atoms 1-2, 10-11 entry N          line   212 file /theoryfs2/ds/csargent/miniconda3/envs/cle/share/psi4/basis/aug-cc-pvdz-jkfit.gbs 
    atoms 3-6, 12-15 entry H          line    70 file /theoryfs2/ds/csargent/miniconda3/envs/cle/share/psi4/basis/aug-cc-pvdz-jkfit.gbs 
    atoms 7-9, 16-18 entry C          line   154 file /theoryfs2/ds/csargent/miniconda3/envs/cle/share/psi4/basis/aug-cc-pvdz-jkfit.gbs 

  ==> Integral Setup <==

  ==> DiskDFJK: Density-Fitted J/K Matrices <==

    J tasked:                  Yes
    K tasked:                  Yes
    wK tasked:                  No
    OpenMP threads:              6
    Integrals threads:           6
    Memory [MiB]:             5006
    Algorithm:                Core
    Integral Cache:           LOAD
    Schwarz Cutoff:          1E-12
    Fitting Condition:       1E-10

   => Auxiliary Basis Set <=

  Basis Set: (AUG-CC-PVDZ AUX)
    Blend: AUG-CC-PVDZ-JKFIT
    Number of shells: 376
    Number of basis functions: 1116
    Number of Cartesian functions: 1290
    Spherical Harmonics?: true
    Max angular momentum: 3

  Minimum eigenvalue in the overlap matrix is 2.0899701741E-05.
  Reciprocal condition number of the overlap matrix is 1.7588349702E-06.
    Using symmetric orthogonalization.

  ==> Pre-Iterations <==

  SCF Guess: Superposition of Atomic Densities via on-the-fly atomic UHF (no occupation information).

   -------------------------
    Irrep   Nso     Nmo    
   -------------------------
     A        302     302 
   -------------------------
    Total     302     302
   -------------------------

  ==> Iterations <==

                           Total Energy        Delta E     RMS |[F,P]|

   @DF-RHF iter SAD:  -224.55857173428626   -2.24559e+02   0.00000e+00 
   @DF-RHF iter   1:  -224.69807046068590   -1.39499e-01   1.63070e-03 DIIS
   @DF-RHF iter   2:  -224.80532668867625   -1.07256e-01   9.27395e-04 DIIS
   @DF-RHF iter   3:  -224.84169502540806   -3.63683e-02   1.74024e-04 DIIS
   @DF-RHF iter   4:  -224.84338033077452   -1.68531e-03   7.98977e-05 DIIS
   @DF-RHF iter   5:  -224.84368191291364   -3.01582e-04   1.26452e-05 DIIS
   @DF-RHF iter   6:  -224.84369924871629   -1.73358e-05   5.61842e-06 DIIS
   @DF-RHF iter   7:  -224.84370233632779   -3.08761e-06   2.19492e-06 DIIS
   @DF-RHF iter   8:  -224.84370306816226   -7.31834e-07   7.77580e-07 DIIS
   @DF-RHF iter   9:  -224.84370317895187   -1.10790e-07   1.87955e-07 DIIS
   @DF-RHF iter  10:  -224.84370318448708   -5.53521e-09   7.33107e-08 DIIS
   @DF-RHF iter  11:  -224.84370318531387   -8.26788e-10   3.26897e-08 DIIS
   @DF-RHF iter  12:  -224.84370318546578   -1.51914e-10   9.70898e-09 DIIS
   @DF-RHF iter  13:  -224.84370318547866   -1.28750e-11   3.58839e-09 DIIS
   @DF-RHF iter  14:  -224.84370318548025   -1.59162e-12   1.58266e-09 DIIS
   @DF-RHF iter  15:  -224.84370318548108   -8.24230e-13   5.27547e-10 DIIS
   @DF-RHF iter  16:  -224.84370318548099    8.52651e-14   2.34514e-10 DIIS
   @DF-RHF iter  17:  -224.84370318548079    1.98952e-13   4.71163e-11 DIIS
  Energy and wave function converged.


  ==> Post-Iterations <==

    Orbital Energies [Eh]
    ---------------------

    Doubly Occupied:                                                      

       1A    -15.637071     2A    -15.551212     3A    -11.300902  
       4A    -11.263160     5A    -11.245653     6A     -1.352867  
       7A     -1.169099     8A     -1.012098     9A     -0.824389  
      10A     -0.803731    11A     -0.760665    12A     -0.610096  
      13A     -0.603958    14A     -0.601922    15A     -0.570943  
      16A     -0.435483    17A     -0.400465    18A     -0.320685  

    Virtual:                                                              

      19A      0.017888    20A      0.025871    21A      0.036556  
      22A      0.041778    23A      0.048216    24A      0.054402  
      25A      0.059174    26A      0.072270    27A      0.075016  
      28A      0.085240    29A      0.092917    30A      0.095369  
      31A      0.107909    32A      0.119163    33A      0.121778  
      34A      0.122987    35A      0.124559    36A      0.126025  
      37A      0.130037    38A      0.131616    39A      0.135338  
      40A      0.138007    41A      0.139259    42A      0.149190  
      43A      0.155535    44A      0.158545    45A      0.173293  
      46A      0.175993    47A      0.180558    48A      0.191126  
      49A      0.196283    50A      0.206314    51A      0.207051  
      52A      0.211226    53A      0.212065    54A      0.219861  
      55A      0.223226    56A      0.227775    57A      0.234673  
      58A      0.239303    59A      0.245271    60A      0.262310  
      61A      0.266461    62A      0.275465    63A      0.281533  
      64A      0.301122    65A      0.303888    66A      0.310285  
      67A      0.320279    68A      0.327460    69A      0.339806  
      70A      0.358608    71A      0.363918    72A      0.372944  
      73A      0.376643    74A      0.383625    75A      0.389510  
      76A      0.392916    77A      0.398838    78A      0.422488  
      79A      0.426601    80A      0.433218    81A      0.434472  
      82A      0.441174    83A      0.447460    84A      0.450816  
      85A      0.452694    86A      0.466310    87A      0.470723  
      88A      0.480450    89A      0.483793    90A      0.486561  
      91A      0.489287    92A      0.519994    93A      0.521514  
      94A      0.533981    95A      0.537278    96A      0.543962  
      97A      0.553121    98A      0.559573    99A      0.563867  
     100A      0.569233   101A      0.577501   102A      0.579485  
     103A      0.585650   104A      0.594819   105A      0.601428  
     106A      0.606286   107A      0.611162   108A      0.616546  
     109A      0.617185   110A      0.637406   111A      0.640015  
     112A      0.652915   113A      0.669680   114A      0.671331  
     115A      0.677222   116A      0.679481   117A      0.683148  
     118A      0.684329   119A      0.711335   120A      0.714867  
     121A      0.726077   122A      0.735863   123A      0.743303  
     124A      0.756053   125A      0.764762   126A      0.772818  
     127A      0.791581   128A      0.793641   129A      0.797609  
     130A      0.808587   131A      0.810541   132A      0.813719  
     133A      0.822965   134A      0.835170   135A      0.858900  
     136A      0.860657   137A      0.875512   138A      0.884836  
     139A      0.887410   140A      0.889841   141A      0.909504  
     142A      0.918372   143A      0.925185   144A      0.954980  
     145A      0.967425   146A      0.978679   147A      0.989944  
     148A      0.999683   149A      1.011166   150A      1.014465  
     151A      1.017886   152A      1.031062   153A      1.058327  
     154A      1.079540   155A      1.080120   156A      1.085314  
     157A      1.103197   158A      1.114598   159A      1.128521  
     160A      1.131207   161A      1.141595   162A      1.150104  
     163A      1.169035   164A      1.170503   165A      1.172417  
     166A      1.197220   167A      1.215045   168A      1.217697  
     169A      1.261638   170A      1.277999   171A      1.288833  
     172A      1.296155   173A      1.302913   174A      1.311716  
     175A      1.316448   176A      1.345810   177A      1.382916  
     178A      1.388455   179A      1.400805   180A      1.451454  
     181A      1.494398   182A      1.507644   183A      1.517343  
     184A      1.518755   185A      1.539898   186A      1.575018  
     187A      1.575488   188A      1.599309   189A      1.652237  
     190A      1.659334   191A      1.672181   192A      1.707129  
     193A      1.725114   194A      1.783201   195A      1.801760  
     196A      1.807309   197A      1.866121   198A      1.883840  
     199A      1.924443   200A      1.965231   201A      2.022268  
     202A      2.026219   203A      2.039616   204A      2.073151  
     205A      2.099005   206A      2.107171   207A      2.121711  
     208A      2.126868   209A      2.131746   210A      2.136209  
     211A      2.148656   212A      2.168773   213A      2.179268  
     214A      2.184010   215A      2.228502   216A      2.252366  
     217A      2.268039   218A      2.276038   219A      2.301264  
     220A      2.308210   221A      2.325899   222A      2.334152  
     223A      2.376682   224A      2.404685   225A      2.412507  
     226A      2.417887   227A      2.457102   228A      2.473276  
     229A      2.494780   230A      2.499354   231A      2.515088  
     232A      2.524032   233A      2.543703   234A      2.547304  
     235A      2.575972   236A      2.586296   237A      2.598559  
     238A      2.634155   239A      2.695172   240A      2.734393  
     241A      2.747286   242A      2.770872   243A      2.788285  
     244A      2.794898   245A      2.803645   246A      2.828006  
     247A      2.838411   248A      2.867315   249A      2.894166  
     250A      2.932250   251A      2.948410   252A      2.953528  
     253A      2.980929   254A      3.042400   255A      3.051317  
     256A      3.070093   257A      3.074999   258A      3.131143  
     259A      3.157919   260A      3.181397   261A      3.204622  
     262A      3.210359   263A      3.214246   264A      3.335762  
     265A      3.343815   266A      3.353447   267A      3.355031  
     268A      3.362426   269A      3.457471   270A      3.496018  
     271A      3.518855   272A      3.568627   273A      3.607860  
     274A      3.706095   275A      3.726557   276A      3.771955  
     277A      3.777125   278A      3.796999   279A      3.857092  
     280A      3.869148   281A      4.004579   282A      4.109582  
     283A      4.214315   284A      4.636038   285A      4.637663  
     286A      4.697557   287A      4.770288   288A      4.882715  
     289A      5.022180   290A      5.253180   291A      5.372056  
     292A      5.494843   293A      5.609668   294A      5.715610  
     295A      5.882489   296A      6.088584   297A      6.196901  
     298A     18.254645   299A     18.590286   300A     19.299433  
     301A     25.310744   302A     25.451938  

    Final Occupation by Irrep:
              A 
    DOCC [    18 ]

  @DF-RHF Final Energy:  -224.84370318548079

   => Energetics <=

    Nuclear Repulsion Energy =            164.0866957986765442
    One-Electron Energy =                -628.9319983079542453
    Two-Electron Energy =                 240.0015993237969099
    Total Energy =                       -224.8437031854807913

Computation Completed


Properties will be evaluated at   0.000000,   0.000000,   0.000000 [a0]

Properties computed using the SCF density matrix

  Nuclear Dipole Moment: [e a0]
     X:  -222.4022      Y:   527.0225      Z:  -106.4674

  Electronic Dipole Moment: [e a0]
     X:   221.5984      Y:  -527.1857      Z:   107.7998

  Dipole Moment: [e a0]
     X:    -0.8038      Y:    -0.1633      Z:     1.3324     Total:     1.5647

  Dipole Moment: [D]
     X:    -2.0431      Y:    -0.4150      Z:     3.3867     Total:     3.9769


*** tstop() called on ds1 at Tue Sep 14 16:08:22 2021
Module time:
	user time   =      19.40 seconds =       0.32 minutes
	system time =       0.33 seconds =       0.01 minutes
	total time  =          5 seconds =       0.08 minutes
Total time:
	user time   =      66.62 seconds =       1.11 minutes
	system time =       1.56 seconds =       0.03 minutes
	total time  =         14 seconds =       0.23 minutes
  Constructing Basis Sets for SAPT...

   => Loading Basis Set <=

    Name: (AUG-CC-PVDZ AUX)
    Role: RIFIT
    Keyword: DF_BASIS_SAPT
    atoms 1-2, 10-11 entry N          line   158 file /theoryfs2/ds/csargent/miniconda3/envs/cle/share/psi4/basis/aug-cc-pvdz-ri.gbs 
    atoms 3-6, 12-15 entry H          line    30 file /theoryfs2/ds/csargent/miniconda3/envs/cle/share/psi4/basis/aug-cc-pvdz-ri.gbs 
    atoms 7-9, 16-18 entry C          line   112 file /theoryfs2/ds/csargent/miniconda3/envs/cle/share/psi4/basis/aug-cc-pvdz-ri.gbs 


  //>>>>>>>>>>>>>>>>>>>>>>>>>>>>>>>>>>>//
  //               SAPT0               //
  //<<<<<<<<<<<<<<<<<<<<<<<<<<<<<<<<<<<//


*** tstart() called on ds1
*** at Tue Sep 14 16:08:22 2021

        SAPT0  
    Ed Hohenstein
     6 June 2009

      Orbital Information
  --------------------------
    NSO        =       302
    NMO        =       302
    NRI        =       904
    NOCC A     =        18
    NOCC B     =        18
    FOCC A     =         5
    FOCC B     =         5
    NVIR A     =       284
    NVIR B     =       284

    Elst10,r            =    -0.000133454422 [Eh]
    Exch10              =     0.000000003274 [Eh]
    Exch10 (S^2)        =     0.000000003274 [Eh]

    Iter     Energy [mEh]          dE [mEh]         Residual      Time [s]
       1      -0.00290390       0.002903897       0.509295332             0
       2      -0.00285789      -0.000046003       0.164451834             0
       3      -0.00323736       0.000379463       0.051402074             0
       4      -0.00325586       0.000018504       0.028729223             0
       5      -0.00324158      -0.000014284       0.012331499             1
       6      -0.00323867      -0.000002910       0.003459046             1
       7      -0.00324012       0.000001451       0.001033072             1
       8      -0.00324039       0.000000273       0.000351476             1
       9      -0.00324033      -0.000000064       0.000146557             1
      10      -0.00324027      -0.000000058       0.000040223             1
      11      -0.00324029       0.000000018       0.000015014             1
      12      -0.00324029       0.000000004       0.000004643             1
      13      -0.00324029      -0.000000002       0.000001307             2
      14      -0.00324029       0.000000000       0.000000409             2

    CHF Iterations converged


    Iter     Energy [mEh]          dE [mEh]         Residual      Time [s]
       1      -0.00290390       0.002903897       0.509295331             0
       2      -0.00285789      -0.000046003       0.164451833             0
       3      -0.00323736       0.000379463       0.051402073             0
       4      -0.00325586       0.000018504       0.028729222             0
       5      -0.00324158      -0.000014284       0.012331499             0
       6      -0.00323867      -0.000002910       0.003459046             0
       7      -0.00324012       0.000001451       0.001033072             1
       8      -0.00324039       0.000000273       0.000351476             1
       9      -0.00324033      -0.000000064       0.000146557             1
      10      -0.00324027      -0.000000058       0.000040223             1
      11      -0.00324029       0.000000018       0.000015014             1
      12      -0.00324029       0.000000004       0.000004643             1
      13      -0.00324029      -0.000000002       0.000001307             1
      14      -0.00324029       0.000000000       0.000000409             1

    CHF Iterations converged

    Ind20,r (A<-B)      =    -0.000003240289 [Eh]
    Ind20,r (B<-A)      =    -0.000003240289 [Eh]
    Ind20,r             =    -0.000006480579 [Eh]
    Exch-Ind20,r (A<-B) =     0.000000003201 [Eh]
    Exch-Ind20,r (B<-A) =     0.000000003201 [Eh]
    Exch-Ind20,r        =     0.000000006401 [Eh]
    Disp20              =    -0.000030872251 [Eh]
    Disp20 (SS)         =    -0.000015436125 [Eh]
    Disp20 (OS)         =    -0.000015436125 [Eh]
    Exch-Disp20         =     0.000000000616 [Eh]
    Exch-Disp20 (SS)    =     0.000000000510 [Eh]
    Exch-Disp20 (OS)    =     0.000000000106 [Eh]

    SAPT Results 
  --------------------------------------------------------------------------------------------------------
    Electrostatics                 -0.13345442 [mEh]      -0.08374391 [kcal/mol]      -0.35038454 [kJ/mol]
      Elst10,r                     -0.13345442 [mEh]      -0.08374391 [kcal/mol]      -0.35038454 [kJ/mol]

    Exchange                        0.00000327 [mEh]       0.00000205 [kcal/mol]       0.00000860 [kJ/mol]
      Exch10                        0.00000327 [mEh]       0.00000205 [kcal/mol]       0.00000860 [kJ/mol]
      Exch10(S^2)                   0.00000327 [mEh]       0.00000205 [kcal/mol]       0.00000860 [kJ/mol]

    Induction                      -0.00645641 [mEh]      -0.00405146 [kcal/mol]      -0.01695129 [kJ/mol]
      Ind20,r                      -0.00648058 [mEh]      -0.00406662 [kcal/mol]      -0.01701476 [kJ/mol]
      Exch-Ind20,r                  0.00000640 [mEh]       0.00000402 [kcal/mol]       0.00001681 [kJ/mol]
      delta HF,r (2)                0.00001777 [mEh]       0.00001115 [kcal/mol]       0.00004666 [kJ/mol]

    Dispersion                     -0.03087163 [mEh]      -0.01937224 [kcal/mol]      -0.08105347 [kJ/mol]
      Disp20                       -0.03087225 [mEh]      -0.01937263 [kcal/mol]      -0.08105508 [kJ/mol]
      Exch-Disp20                   0.00000062 [mEh]       0.00000039 [kcal/mol]       0.00000162 [kJ/mol]
      Disp20 (SS)                  -0.01543613 [mEh]      -0.00968631 [kcal/mol]      -0.04052754 [kJ/mol]
      Disp20 (OS)                  -0.01543613 [mEh]      -0.00968631 [kcal/mol]      -0.04052754 [kJ/mol]
      Exch-Disp20 (SS)              0.00000051 [mEh]       0.00000032 [kcal/mol]       0.00000134 [kJ/mol]
      Exch-Disp20 (OS)              0.00000011 [mEh]       0.00000007 [kcal/mol]       0.00000028 [kJ/mol]

  Total HF                         -0.13990755 [mEh]      -0.08779332 [kcal/mol]      -0.36732723 [kJ/mol]
  Total SAPT0                      -0.17077919 [mEh]      -0.10716556 [kcal/mol]      -0.44838070 [kJ/mol]

  Special recipe for scaled SAPT0 (see Manual):
    Electrostatics sSAPT0          -0.13345442 [mEh]      -0.08374391 [kcal/mol]      -0.35038454 [kJ/mol]
    Exchange sSAPT0                 0.00000327 [mEh]       0.00000205 [kcal/mol]       0.00000860 [kJ/mol]
    Induction sSAPT0               -0.00645641 [mEh]      -0.00405146 [kcal/mol]      -0.01695129 [kJ/mol]
    Dispersion sSAPT0              -0.03087163 [mEh]      -0.01937224 [kcal/mol]      -0.08105347 [kJ/mol]
  Total sSAPT0                     -0.17077919 [mEh]      -0.10716556 [kcal/mol]      -0.44838070 [kJ/mol]
  --------------------------------------------------------------------------------------------------------

*** tstop() called on ds1 at Tue Sep 14 16:08:32 2021
Module time:
	user time   =      48.21 seconds =       0.80 minutes
	system time =       4.31 seconds =       0.07 minutes
	total time  =         10 seconds =       0.17 minutes
Total time:
	user time   =     115.41 seconds =       1.92 minutes
	system time =       5.88 seconds =       0.10 minutes
	total time  =         24 seconds =       0.40 minutes


Warning! sapt0 does not have an associated derived wavefunction.The returned wavefunction is the dimer SCF wavefunction.


    Psi4 stopped on: Tuesday, 14 September 2021 04:08PM
    Psi4 wall time for execution: 0:00:24.36

*** Psi4 exiting successfully. Buy a developer a beer!
