
    -----------------------------------------------------------------------
          Psi4: An Open-Source Ab Initio Electronic Structure Package
                               Psi4 1.4rc3

                         Git: Rev {HEAD} 080dba6


    D. G. A. Smith, L. A. Burns, A. C. Simmonett, R. M. Parrish,
    M. C. Schieber, R. Galvelis, P. Kraus, H. Kruse, R. Di Remigio,
    A. Alenaizan, A. M. James, S. Lehtola, J. P. Misiewicz, M. Scheurer,
    R. A. Shaw, J. B. Schriber, Y. Xie, Z. L. Glick, D. A. Sirianni,
    J. S. O'Brien, J. M. Waldrop, A. Kumar, E. G. Hohenstein,
    B. P. Pritchard, B. R. Brooks, H. F. Schaefer III, A. Yu. Sokolov,
    K. Patkowski, A. E. DePrince III, U. Bozkaya, R. A. King,
    F. A. Evangelista, J. M. Turney, T. D. Crawford, C. D. Sherrill,
    J. Chem. Phys. 152(18) 184108 (2020). https://doi.org/10.1063/5.0006002

                            Additional Code Authors
    E. T. Seidl, C. L. Janssen, E. F. Valeev, M. L. Leininger,
    J. F. Gonthier, R. M. Richard, H. R. McAlexander, M. Saitow, X. Wang,
    P. Verma, and M. H. Lechner

             Previous Authors, Complete List of Code Contributors,
                       and Citations for Specific Modules
    https://github.com/psi4/psi4/blob/master/codemeta.json
    https://github.com/psi4/psi4/graphs/contributors
    http://psicode.org/psi4manual/master/introduction.html#citing-psifour

    -----------------------------------------------------------------------


    Psi4 started on: Tuesday, 14 September 2021 05:21PM

    Process ID: 2864
    Host:       ds1
    PSIDATADIR: /theoryfs2/ds/csargent/miniconda3/envs/cle/share/psi4
    Memory:     500.0 MiB
    Threads:    6

  ==> Input File <==

--------------------------------------------------------------------------
# PSI4 file produced by CrystaLattE

# Generated from:               imidazole.xyz
# Psithon input for N-mer:      2mer-0+102
# Number of atoms per monomer:  [9, 9]
# Number of replicas:           2
# COM priority:                 4.750053146155e-05
# Minimum COM separations:      14.612
# Separation priority:          8.900817671754e-05
# Minimum monomer separations:  11.852
# Cutoff priority:              3.974109901984e-06
# Nuclear repulsion energy:     375.14308828439755

memory 7 GB

molecule Dimer_0_102 {
  N           -4.29309621      -3.06837431       5.30516231
  N           -2.15847371      -2.92627296       1.72037448
  H           -0.02545587      -6.35903575       2.22046452
  H           -2.68566968      -6.53260241       6.61445954
  H           -4.74388423      -0.00609006       2.75615968
  H           -1.41045540      -2.24723147       0.00000000
  C           -1.43737991      -5.07504848       2.94065891
  C           -2.76900782      -5.14609916       5.13522880
  C           -3.85955036      -1.77728198       3.21093411
--
  N           -5.17481981       9.04678142     -18.97105327
  N           -3.04019731       8.90468007     -22.55584110
  H           -0.90717946      12.33744286     -22.05575106
  H           -3.56739328      12.51100952     -17.66175604
  H           -5.62560782       5.98449717     -21.52005591
  H           -2.29217900       8.22563858     -24.27621558
  C           -2.31910351      11.05345559     -21.33555667
  C           -3.65073142      11.12450627     -19.14098678
  C           -4.74127395       7.75568909     -21.06528147
units = au
no_com
no_reorient
}

set {
  e_convergence 10
  d_convergence 10
  scf_type df
  mp2_type df
  cc_type df
  freeze_core true
}

energy('sapt0/aug-cc-pvdz')

--------------------------------------------------------------------------

  Memory set to   6.519 GiB by Python driver.

Scratch directory: /scratch/csargent/psi4.31446.79897/

Scratch directory: /scratch/csargent/psi4.31446.79897/

  //>>>>>>>>>>>>>>>>>>>>>>>>>>>>>>>>>>>//
  //              Dimer HF             //
  //<<<<<<<<<<<<<<<<<<<<<<<<<<<<<<<<<<<//


*** tstart() called on ds1
*** at Tue Sep 14 17:21:11 2021

   => Loading Basis Set <=

    Name: AUG-CC-PVDZ
    Role: ORBITAL
    Keyword: BASIS
    atoms 1-2, 10-11 entry N          line   218 file /theoryfs2/ds/csargent/miniconda3/envs/cle/share/psi4/basis/aug-cc-pvdz.gbs
    atoms 3-6, 12-15 entry H          line    40 file /theoryfs2/ds/csargent/miniconda3/envs/cle/share/psi4/basis/aug-cc-pvdz.gbs
    atoms 7-9, 16-18 entry C          line   182 file /theoryfs2/ds/csargent/miniconda3/envs/cle/share/psi4/basis/aug-cc-pvdz.gbs


         ---------------------------------------------------------
                                   SCF
               by Justin Turney, Rob Parrish, Andy Simmonett
                          and Daniel G. A. Smith
                              RHF Reference
                        6 Threads,   6675 MiB Core
         ---------------------------------------------------------

  ==> Geometry <==

    Molecular point group: c1
    Full point group: C1

    Geometry (in Bohr), charge = 0, multiplicity = 1:

       Center              X                  Y                   Z               Mass
    ------------   -----------------  -----------------  -----------------  -----------------
         N           -4.293096210000    -3.068374310000     5.305162310000    14.003074004430
         N           -2.158473710000    -2.926272960000     1.720374480000    14.003074004430
         H           -0.025455870000    -6.359035750000     2.220464520000     1.007825032230
         H           -2.685669680000    -6.532602410000     6.614459540000     1.007825032230
         H           -4.743884230000    -0.006090060000     2.756159680000     1.007825032230
         H           -1.410455400000    -2.247231470000     0.000000000000     1.007825032230
         C           -1.437379910000    -5.075048480000     2.940658910000    12.000000000000
         C           -2.769007820000    -5.146099160000     5.135228800000    12.000000000000
         C           -3.859550360000    -1.777281980000     3.210934110000    12.000000000000
         N           -5.174819810000     9.046781420000   -18.971053270000    14.003074004430
         N           -3.040197310000     8.904680070000   -22.555841100000    14.003074004430
         H           -0.907179460000    12.337442860000   -22.055751060000     1.007825032230
         H           -3.567393280000    12.511009520000   -17.661756040000     1.007825032230
         H           -5.625607820000     5.984497170000   -21.520055910000     1.007825032230
         H           -2.292179000000     8.225638580000   -24.276215580000     1.007825032230
         C           -2.319103510000    11.053455590000   -21.335556670000    12.000000000000
         C           -3.650731420000    11.124506270000   -19.140986780000    12.000000000000
         C           -4.741273950000     7.755689090000   -21.065281470000    12.000000000000

  Running in c1 symmetry.

  Rotational constants: A =      0.03905  B =      0.00158  C =      0.00154 [cm^-1]
  Rotational constants: A =   1170.72214  B =     47.41006  C =     46.28500 [MHz]
  Nuclear repulsion =  375.143088460789386

  Charge       = 0
  Multiplicity = 1
  Electrons    = 72
  Nalpha       = 36
  Nbeta        = 36

  ==> Algorithm <==

  SCF Algorithm Type is DF.
  DIIS enabled.
  MOM disabled.
  Fractional occupation disabled.
  Guess Type is SAD.
  Energy threshold   = 1.00e-10
  Density threshold  = 1.00e-10
  Integral threshold = 1.00e-12

  ==> Primary Basis <==

  Basis Set: AUG-CC-PVDZ
    Blend: AUG-CC-PVDZ
    Number of shells: 130
    Number of basis functions: 302
    Number of Cartesian functions: 322
    Spherical Harmonics?: true
    Max angular momentum: 2

   => Loading Basis Set <=

    Name: (AUG-CC-PVDZ AUX)
    Role: JKFIT
    Keyword: DF_BASIS_SCF
    atoms 1-2, 10-11 entry N          line   212 file /theoryfs2/ds/csargent/miniconda3/envs/cle/share/psi4/basis/aug-cc-pvdz-jkfit.gbs
    atoms 3-6, 12-15 entry H          line    70 file /theoryfs2/ds/csargent/miniconda3/envs/cle/share/psi4/basis/aug-cc-pvdz-jkfit.gbs
    atoms 7-9, 16-18 entry C          line   154 file /theoryfs2/ds/csargent/miniconda3/envs/cle/share/psi4/basis/aug-cc-pvdz-jkfit.gbs

  ==> Integral Setup <==

  ==> DiskDFJK: Density-Fitted J/K Matrices <==

    J tasked:                  Yes
    K tasked:                  Yes
    wK tasked:                  No
    OpenMP threads:              6
    Integrals threads:           6
    Memory [MiB]:             5006
    Algorithm:                Core
    Integral Cache:           SAVE
    Schwarz Cutoff:          1E-12
    Fitting Condition:       1E-10

   => Auxiliary Basis Set <=

  Basis Set: (AUG-CC-PVDZ AUX)
    Blend: AUG-CC-PVDZ-JKFIT
    Number of shells: 376
    Number of basis functions: 1116
    Number of Cartesian functions: 1290
    Spherical Harmonics?: true
    Max angular momentum: 3

  Minimum eigenvalue in the overlap matrix is 2.1817209576E-05.
  Reciprocal condition number of the overlap matrix is 1.8377745512E-06.
    Using symmetric orthogonalization.

  ==> Pre-Iterations <==

  SCF Guess: Superposition of Atomic Densities via on-the-fly atomic UHF (no occupation information).

   -------------------------
    Irrep   Nso     Nmo
   -------------------------
     A        302     302
   -------------------------
    Total     302     302
   -------------------------

  ==> Iterations <==

                           Total Energy        Delta E     RMS |[F,P]|

   @DF-RHF iter SAD:  -449.11714340474725   -4.49117e+02   0.00000e+00
   @DF-RHF iter   1:  -449.39650608493861   -2.79363e-01   2.30520e-03 DIIS
   @DF-RHF iter   2:  -449.61099026068553   -2.14484e-01   1.30975e-03 DIIS
   @DF-RHF iter   3:  -449.68352046530174   -7.25302e-02   2.45642e-04 DIIS
   @DF-RHF iter   4:  -449.68688258812364   -3.36212e-03   1.12712e-04 DIIS
   @DF-RHF iter   5:  -449.68748273370704   -6.00146e-04   1.78769e-05 DIIS
   @DF-RHF iter   6:  -449.68751736382018   -3.46301e-05   7.93726e-06 DIIS
   @DF-RHF iter   7:  -449.68752353065059   -6.16683e-06   3.10006e-06 DIIS
   @DF-RHF iter   8:  -449.68752499255555   -1.46190e-06   1.09903e-06 DIIS
   @DF-RHF iter   9:  -449.68752521387501   -2.21319e-07   2.65279e-07 DIIS
   @DF-RHF iter  10:  -449.68752522491536   -1.10404e-08   1.03308e-07 DIIS
   @DF-RHF iter  11:  -449.68752522655507   -1.63971e-09   4.61782e-08 DIIS
   @DF-RHF iter  12:  -449.68752522685753   -3.02464e-10   1.37026e-08 DIIS
   @DF-RHF iter  13:  -449.68752522688413   -2.66027e-11   5.08058e-09 DIIS
   @DF-RHF iter  14:  -449.68752522688698   -2.84217e-12   2.24061e-09 DIIS
   @DF-RHF iter  15:  -449.68752522688806   -1.08002e-12   7.71575e-10 DIIS
   @DF-RHF iter  16:  -449.68752522688800    5.68434e-14   3.64765e-10 DIIS
   @DF-RHF iter  17:  -449.68752522688760    3.97904e-13   1.17524e-10 DIIS
   @DF-RHF iter  18:  -449.68752522688834   -7.38964e-13   4.04043e-11 DIIS
  Energy and wave function converged.


  ==> Post-Iterations <==

    Orbital Energies [Eh]
    ---------------------

    Doubly Occupied:

       1A    -15.638859     2A    -15.635439     3A    -15.553090
       4A    -15.549649     5A    -11.302752     6A    -11.299312
       7A    -11.264958     8A    -11.261676     9A    -11.247466
      10A    -11.244194    11A     -1.354683    12A     -1.351287
      13A     -1.170932    14A     -1.167527    15A     -1.013910
      16A     -1.010563    17A     -0.826197    18A     -0.822793
      19A     -0.805546    20A     -0.802201    21A     -0.762469
      22A     -0.759090    23A     -0.611907    24A     -0.608534
      25A     -0.605772    26A     -0.603702    27A     -0.602375
      28A     -0.600405    29A     -0.572783    30A     -0.569427
      31A     -0.437378    32A     -0.433950    33A     -0.402316
      34A     -0.398916    35A     -0.322500    36A     -0.319170

    Virtual:

      37A      0.023896    38A      0.027393    39A      0.040026
      40A      0.043178    41A      0.048236    42A      0.051416
      43A      0.060223    44A      0.063401    45A      0.087223
      46A      0.090715    47A      0.099527    48A      0.103082
      49A      0.119014    50A      0.122400    51A      0.123804
      52A      0.126891    53A      0.131853    54A      0.131949
      55A      0.134992    56A      0.135262    57A      0.139076
      58A      0.142372    59A      0.154895    60A      0.156966
      61A      0.157747    62A      0.160761    63A      0.170371
      64A      0.173119    65A      0.176412    66A      0.179845
      67A      0.185521    68A      0.189135    69A      0.209620
      70A      0.213134    71A      0.218463    72A      0.221762
      73A      0.230472    74A      0.233861    75A      0.239621
      76A      0.242921    77A      0.259876    78A      0.263191
      79A      0.265818    80A      0.269229    81A      0.275911
      82A      0.279402    83A      0.299932    84A      0.303335
      85A      0.312538    86A      0.316147    87A      0.336374
      88A      0.339610    89A      0.359768    90A      0.362970
      91A      0.369001    92A      0.372375    93A      0.378028
      94A      0.381513    95A      0.386561    96A      0.389854
      97A      0.395424    98A      0.398625    99A      0.415187
     100A      0.418672   101A      0.427102   102A      0.430518
     103A      0.450269   104A      0.453661   105A      0.464536
     106A      0.468002   107A      0.479525   108A      0.482889
     109A      0.484514   110A      0.486341   111A      0.487731
     112A      0.489664   113A      0.549899   114A      0.553293
     115A      0.554659   116A      0.557936   117A      0.566517
     118A      0.569831   119A      0.574660   120A      0.578150
     121A      0.592499   122A      0.595841   123A      0.597175
     124A      0.600510   125A      0.614221   126A      0.617564
     127A      0.634753   128A      0.638008   129A      0.650684
     130A      0.654042   131A      0.667501   132A      0.669519
     133A      0.670786   134A      0.672856   135A      0.676415
     136A      0.679878   137A      0.682103   138A      0.685325
     139A      0.712897   140A      0.716246   141A      0.723998
     142A      0.727355   143A      0.739432   144A      0.742793
     145A      0.760866   146A      0.764218   147A      0.765579
     148A      0.768945   149A      0.789140   150A      0.791737
     151A      0.792477   152A      0.795255   153A      0.807968
     154A      0.811352   155A      0.858593   156A      0.861954
     157A      0.869612   158A      0.872948   159A      0.883914
     160A      0.887276   161A      0.888034   162A      0.891209
     163A      0.952521   164A      0.955896   165A      0.975161
     166A      0.978605   167A      0.996496   168A      0.999934
     169A      1.008835   170A      1.012229   171A      1.015562
     172A      1.018904   173A      1.028849   174A      1.032268
     175A      1.075499   176A      1.078904   177A      1.082724
     178A      1.086153   179A      1.125172   180A      1.128492
     181A      1.138665   182A      1.142020   183A      1.147747
     184A      1.151123   185A      1.165360   186A      1.168713
     187A      1.215577   188A      1.218987   189A      1.258963
     190A      1.262233   191A      1.300714   192A      1.304024
     193A      1.383242   194A      1.386698   195A      1.396292
     196A      1.399682   197A      1.449316   198A      1.452710
     199A      1.501454   200A      1.504863   201A      1.516592
     202A      1.519972   203A      1.572313   204A      1.572454
     205A      1.575614   206A      1.575760   207A      1.594588
     208A      1.597920   209A      1.650328   210A      1.653699
     211A      1.669687   212A      1.672962   213A      1.703485
     214A      1.706754   215A      1.722627   216A      1.726136
     217A      1.780847   218A      1.784140   219A      1.797268
     220A      1.800551   221A      1.805225   222A      1.808511
     223A      1.863125   224A      1.866503   225A      1.879659
     226A      1.883128   227A      1.922549   228A      1.925975
     229A      1.963174   230A      1.966562   231A      2.020224
     232A      2.023474   233A      2.023753   234A      2.027011
     235A      2.071172   236A      2.074535   237A      2.105241
     238A      2.108580   239A      2.124949   240A      2.128242
     241A      2.134166   242A      2.137450   243A      2.166874
     244A      2.170207   245A      2.177021   246A      2.180395
     247A      2.265277   248A      2.268667   249A      2.274137
     250A      2.277559   251A      2.299100   252A      2.302566
     253A      2.330247   254A      2.333665   255A      2.415961
     256A      2.419248   257A      2.495141   258A      2.498569
     259A      2.512196   260A      2.515588   261A      2.543569
     262A      2.547066   263A      2.583939   264A      2.587268
     265A      2.631945   266A      2.635293   267A      2.732289
     268A      2.735567   269A      2.745181   270A      2.748594
     271A      2.765280   272A      2.768608   273A      2.792327
     274A      2.795710   275A      2.801611   276A      2.805013
     277A      2.835855   278A      2.839245   279A      2.865382
     280A      2.868818   281A      2.950930   282A      2.954329
     283A      2.979011   284A      2.982429   285A      3.049395
     286A      3.052708   287A      3.068099   288A      3.071439
     289A      3.197339   290A      3.200769   291A      3.206983
     292A      3.210359   293A      3.332996   294A      3.336423
     295A      3.352739   296A      3.356122   297A      3.516716
     298A      3.520099   299A      3.766460   300A      3.769854
     301A      4.107237   302A      4.110553

    Final Occupation by Irrep:
              A
    DOCC [    36 ]

  @DF-RHF Final Energy:  -449.68752522688834

   => Energetics <=

    Nuclear Repulsion Energy =            375.1430884607893859
    One-Electron Energy =               -1351.7937729625887187
    Two-Electron Energy =                 526.9631592749109359
    Total Energy =                       -449.6875252268883969

Computation Completed


Properties will be evaluated at   0.000000,   0.000000,   0.000000 [a0]

Properties computed using the SCF density matrix

  Nuclear Dipole Moment: [e a0]
     X:  -236.5862      Y:   215.2227      Z:  -616.9622

  Electronic Dipole Moment: [e a0]
     X:   238.1912      Y:  -215.2150      Z:   614.2882

  Dipole Moment: [e a0]
     X:     1.6050      Y:     0.0077      Z:    -2.6741     Total:     3.1188

  Dipole Moment: [D]
     X:     4.0795      Y:     0.0195      Z:    -6.7968     Total:     7.9271


*** tstop() called on ds1 at Tue Sep 14 17:21:16 2021
Module time:
	user time   =      25.59 seconds =       0.43 minutes
	system time =       0.67 seconds =       0.01 minutes
	total time  =          5 seconds =       0.08 minutes
Total time:
	user time   =      25.59 seconds =       0.43 minutes
	system time =       0.67 seconds =       0.01 minutes
	total time  =          5 seconds =       0.08 minutes

  //>>>>>>>>>>>>>>>>>>>>>>>>>>>>>>>>>>>//
  //            Monomer A HF           //
  //<<<<<<<<<<<<<<<<<<<<<<<<<<<<<<<<<<<//


*** tstart() called on ds1
*** at Tue Sep 14 17:21:16 2021

   => Loading Basis Set <=

    Name: AUG-CC-PVDZ
    Role: ORBITAL
    Keyword: BASIS
    atoms 1-2, 10-11 entry N          line   218 file /theoryfs2/ds/csargent/miniconda3/envs/cle/share/psi4/basis/aug-cc-pvdz.gbs
    atoms 3-6, 12-15 entry H          line    40 file /theoryfs2/ds/csargent/miniconda3/envs/cle/share/psi4/basis/aug-cc-pvdz.gbs
    atoms 7-9, 16-18 entry C          line   182 file /theoryfs2/ds/csargent/miniconda3/envs/cle/share/psi4/basis/aug-cc-pvdz.gbs


         ---------------------------------------------------------
                                   SCF
               by Justin Turney, Rob Parrish, Andy Simmonett
                          and Daniel G. A. Smith
                              RHF Reference
                        6 Threads,   6675 MiB Core
         ---------------------------------------------------------

  ==> Geometry <==

    Molecular point group: c1
    Full point group: C1

    Geometry (in Bohr), charge = 0, multiplicity = 1:

       Center              X                  Y                   Z               Mass
    ------------   -----------------  -----------------  -----------------  -----------------
         N           -4.293096210000    -3.068374310000     5.305162310000    14.003074004430
         N           -2.158473710000    -2.926272960000     1.720374480000    14.003074004430
         H           -0.025455870000    -6.359035750000     2.220464520000     1.007825032230
         H           -2.685669680000    -6.532602410000     6.614459540000     1.007825032230
         H           -4.743884230000    -0.006090060000     2.756159680000     1.007825032230
         H           -1.410455400000    -2.247231470000     0.000000000000     1.007825032230
         C           -1.437379910000    -5.075048480000     2.940658910000    12.000000000000
         C           -2.769007820000    -5.146099160000     5.135228800000    12.000000000000
         C           -3.859550360000    -1.777281980000     3.210934110000    12.000000000000
      Gh(N)          -5.174819810000     9.046781420000   -18.971053270000    14.003074004430
      Gh(N)          -3.040197310000     8.904680070000   -22.555841100000    14.003074004430
      Gh(H)          -0.907179460000    12.337442860000   -22.055751060000     1.007825032230
      Gh(H)          -3.567393280000    12.511009520000   -17.661756040000     1.007825032230
      Gh(H)          -5.625607820000     5.984497170000   -21.520055910000     1.007825032230
      Gh(H)          -2.292179000000     8.225638580000   -24.276215580000     1.007825032230
      Gh(C)          -2.319103510000    11.053455590000   -21.335556670000    12.000000000000
      Gh(C)          -3.650731420000    11.124506270000   -19.140986780000    12.000000000000
      Gh(C)          -4.741273950000     7.755689090000   -21.065281470000    12.000000000000

  Running in c1 symmetry.

  Rotational constants: A =      0.03905  B =      0.00158  C =      0.00154 [cm^-1]
  Rotational constants: A =   1170.72214  B =     47.41006  C =     46.28500 [MHz]
  Nuclear repulsion =  164.086695994184396

  Charge       = 0
  Multiplicity = 1
  Electrons    = 36
  Nalpha       = 18
  Nbeta        = 18

  ==> Algorithm <==

  SCF Algorithm Type is DF.
  DIIS enabled.
  MOM disabled.
  Fractional occupation disabled.
  Guess Type is SAD.
  Energy threshold   = 1.00e-10
  Density threshold  = 1.00e-10
  Integral threshold = 1.00e-12

  ==> Primary Basis <==

  Basis Set: AUG-CC-PVDZ
    Blend: AUG-CC-PVDZ
    Number of shells: 130
    Number of basis functions: 302
    Number of Cartesian functions: 322
    Spherical Harmonics?: true
    Max angular momentum: 2

   => Loading Basis Set <=

    Name: (AUG-CC-PVDZ AUX)
    Role: JKFIT
    Keyword: DF_BASIS_SCF
    atoms 1-2, 10-11 entry N          line   212 file /theoryfs2/ds/csargent/miniconda3/envs/cle/share/psi4/basis/aug-cc-pvdz-jkfit.gbs
    atoms 3-6, 12-15 entry H          line    70 file /theoryfs2/ds/csargent/miniconda3/envs/cle/share/psi4/basis/aug-cc-pvdz-jkfit.gbs
    atoms 7-9, 16-18 entry C          line   154 file /theoryfs2/ds/csargent/miniconda3/envs/cle/share/psi4/basis/aug-cc-pvdz-jkfit.gbs

  ==> Integral Setup <==

  ==> DiskDFJK: Density-Fitted J/K Matrices <==

    J tasked:                  Yes
    K tasked:                  Yes
    wK tasked:                  No
    OpenMP threads:              6
    Integrals threads:           6
    Memory [MiB]:             5006
    Algorithm:                Core
    Integral Cache:           LOAD
    Schwarz Cutoff:          1E-12
    Fitting Condition:       1E-10

   => Auxiliary Basis Set <=

  Basis Set: (AUG-CC-PVDZ AUX)
    Blend: AUG-CC-PVDZ-JKFIT
    Number of shells: 376
    Number of basis functions: 1116
    Number of Cartesian functions: 1290
    Spherical Harmonics?: true
    Max angular momentum: 3

  Minimum eigenvalue in the overlap matrix is 2.1817209576E-05.
  Reciprocal condition number of the overlap matrix is 1.8377745512E-06.
    Using symmetric orthogonalization.

  ==> Pre-Iterations <==

  SCF Guess: Superposition of Atomic Densities via on-the-fly atomic UHF (no occupation information).

   -------------------------
    Irrep   Nso     Nmo
   -------------------------
     A        302     302
   -------------------------
    Total     302     302
   -------------------------

  ==> Iterations <==

                           Total Energy        Delta E     RMS |[F,P]|

   @DF-RHF iter SAD:  -224.55857169618986   -2.24559e+02   0.00000e+00
   @DF-RHF iter   1:  -224.69806465393600   -1.39493e-01   1.63067e-03 DIIS
   @DF-RHF iter   2:  -224.80532027238272   -1.07256e-01   9.27384e-04 DIIS
   @DF-RHF iter   3:  -224.84168817572987   -3.63679e-02   1.74019e-04 DIIS
   @DF-RHF iter   4:  -224.84337342776786   -1.68525e-03   7.98972e-05 DIIS
   @DF-RHF iter   5:  -224.84367500846056   -3.01581e-04   1.26452e-05 DIIS
   @DF-RHF iter   6:  -224.84369234549027   -1.73370e-05   5.61871e-06 DIIS
   @DF-RHF iter   7:  -224.84369543355854   -3.08807e-06   2.19503e-06 DIIS
   @DF-RHF iter   8:  -224.84369616547704   -7.31919e-07   7.77587e-07 DIIS
   @DF-RHF iter   9:  -224.84369627627029   -1.10793e-07   1.87961e-07 DIIS
   @DF-RHF iter  10:  -224.84369628180619   -5.53590e-09   7.33125e-08 DIIS
   @DF-RHF iter  11:  -224.84369628263272   -8.26532e-10   3.26918e-08 DIIS
   @DF-RHF iter  12:  -224.84369628278469   -1.51971e-10   9.70884e-09 DIIS
   @DF-RHF iter  13:  -224.84369628279779   -1.31024e-11   3.58840e-09 DIIS
   @DF-RHF iter  14:  -224.84369628279933   -1.53477e-12   1.58275e-09 DIIS
   @DF-RHF iter  15:  -224.84369628280021   -8.81073e-13   5.27556e-10 DIIS
   @DF-RHF iter  16:  -224.84369628279993    2.84217e-13   2.34517e-10 DIIS
   @DF-RHF iter  17:  -224.84369628279984    8.52651e-14   4.71135e-11 DIIS
  Energy and wave function converged.


  ==> Post-Iterations <==

    Orbital Energies [Eh]
    ---------------------

    Doubly Occupied:

       1A    -15.637071     2A    -15.551216     3A    -11.300916
       4A    -11.263160     5A    -11.245653     6A     -1.352867
       7A     -1.169098     8A     -1.012098     9A     -0.824390
      10A     -0.803731    11A     -0.760666    12A     -0.610096
      13A     -0.603958    14A     -0.601922    15A     -0.570942
      16A     -0.435483    17A     -0.400464    18A     -0.320685

    Virtual:

      19A      0.020860    20A      0.025386    21A      0.038497
      22A      0.041275    23A      0.042309    24A      0.049998
      25A      0.061860    26A      0.066280    27A      0.074738
      28A      0.084501    29A      0.089096    30A      0.095860
      31A      0.101396    32A      0.120766    33A      0.123022
      34A      0.123358    35A      0.125004    36A      0.125575
      37A      0.125655    38A      0.131975    39A      0.133750
      40A      0.133867    41A      0.136585    42A      0.140942
      43A      0.154863    44A      0.156506    45A      0.159002
      46A      0.171990    47A      0.178189    48A      0.187213
      49A      0.190697    50A      0.206134    51A      0.207700
      52A      0.210586    53A      0.211559    54A      0.218490
      55A      0.220266    56A      0.220769    57A      0.231441
      58A      0.232360    59A      0.241408    60A      0.261604
      61A      0.267797    62A      0.270574    63A      0.277911
      64A      0.297585    65A      0.301749    66A      0.304757
      67A      0.314444    68A      0.317565    69A      0.338197
      70A      0.358370    71A      0.361525    72A      0.370742
      73A      0.373897    74A      0.379886    75A      0.388301
      76A      0.391719    77A      0.397100    78A      0.417045
      79A      0.425743    80A      0.429001    81A      0.433625
      82A      0.438617    83A      0.447408    84A      0.450578
      85A      0.452059    86A      0.466349    87A      0.466562
      88A      0.479342    89A      0.481229    90A      0.486284
      91A      0.488151    92A      0.515675    93A      0.518984
      94A      0.534323    95A      0.536647    96A      0.541472
      97A      0.551710    98A      0.554194    99A      0.556386
     100A      0.568280   101A      0.576467   102A      0.577886
     103A      0.585873   104A      0.594250   105A      0.598940
     106A      0.604761   107A      0.610344   108A      0.616080
     109A      0.616686   110A      0.636549   111A      0.638122
     112A      0.652505   113A      0.669282   114A      0.671338
     115A      0.676029   116A      0.678201   117A      0.682098
     118A      0.683875   119A      0.709461   120A      0.714698
     121A      0.725758   122A      0.734426   123A      0.741239
     124A      0.754493   125A      0.762698   126A      0.767400
     127A      0.790925   128A      0.793606   129A      0.796601
     130A      0.808842   131A      0.809742   132A      0.810802
     133A      0.821645   134A      0.834893   135A      0.857957
     136A      0.860401   137A      0.871428   138A      0.884882
     139A      0.885769   140A      0.889823   141A      0.908108
     142A      0.917939   143A      0.925187   144A      0.954351
     145A      0.967049   146A      0.976971   147A      0.990116
     148A      0.998366   149A      1.010706   150A      1.013789
     151A      1.017405   152A      1.030679   153A      1.057356
     154A      1.076976   155A      1.077357   156A      1.084553
     157A      1.102003   158A      1.114398   159A      1.126984
     160A      1.130878   161A      1.140497   162A      1.149565
     163A      1.167142   164A      1.169279   165A      1.172358
     166A      1.195885   167A      1.208930   168A      1.217446
     169A      1.260722   170A      1.276323   171A      1.288935
     172A      1.295262   173A      1.302539   174A      1.310900
     175A      1.316445   176A      1.345873   177A      1.382517
     178A      1.385037   179A      1.398147   180A      1.451143
     181A      1.493260   182A      1.503303   183A      1.514189
     184A      1.518410   185A      1.539729   186A      1.574127
     187A      1.574285   188A      1.596383   189A      1.652159
     190A      1.659303   191A      1.671506   192A      1.705286
     193A      1.724477   194A      1.782643   195A      1.799068
     196A      1.807063   197A      1.864950   198A      1.881478
     199A      1.924391   200A      1.964988   201A      2.022008
     202A      2.025430   203A      2.038075   204A      2.072982
     205A      2.099441   206A      2.107055   207A      2.117828
     208A      2.126759   209A      2.129783   210A      2.135965
     211A      2.147894   212A      2.168670   213A      2.178815
     214A      2.183535   215A      2.228216   216A      2.251153
     217A      2.267082   218A      2.275963   219A      2.300924
     220A      2.307103   221A      2.325581   222A      2.332072
     223A      2.375253   224A      2.404227   225A      2.411882
     226A      2.417758   227A      2.454248   228A      2.469303
     229A      2.492445   230A      2.496932   231A      2.514026
     232A      2.524321   233A      2.543889   234A      2.545355
     235A      2.575384   236A      2.585744   237A      2.598352
     238A      2.633765   239A      2.694823   240A      2.734093
     241A      2.747025   242A      2.767090   243A      2.788850
     244A      2.794149   245A      2.803444   246A      2.827385
     247A      2.837647   248A      2.867213   249A      2.894243
     250A      2.931855   251A      2.948009   252A      2.952743
     253A      2.980862   254A      3.042059   255A      3.051201
     256A      3.069910   257A      3.074758   258A      3.130460
     259A      3.158193   260A      3.181467   261A      3.199169
     262A      3.208795   263A      3.211906   264A      3.334816
     265A      3.339425   266A      3.353322   267A      3.354572
     268A      3.361490   269A      3.457265   270A      3.492914
     271A      3.518552   272A      3.568268   273A      3.607374
     274A      3.705843   275A      3.725305   276A      3.768295
     277A      3.776993   278A      3.796833   279A      3.856555
     280A      3.869270   281A      4.002440   282A      4.109022
     283A      4.211374   284A      4.635341   285A      4.637350
     286A      4.694532   287A      4.770388   288A      4.878700
     289A      5.020010   290A      5.253200   291A      5.371761
     292A      5.493358   293A      5.608999   294A      5.714943
     295A      5.882509   296A      6.088380   297A      6.196726
     298A     18.254094   299A     18.588694   300A     19.299065
     301A     25.310377   302A     25.451955

    Final Occupation by Irrep:
              A
    DOCC [    18 ]

  @DF-RHF Final Energy:  -224.84369628279984

   => Energetics <=

    Nuclear Repulsion Energy =            164.0866959941843959
    One-Electron Energy =                -628.9319563423576938
    Two-Electron Energy =                 240.0015640653734295
    Total Energy =                       -224.8436962827998400

Computation Completed


Properties will be evaluated at   0.000000,   0.000000,   0.000000 [a0]

Properties computed using the SCF density matrix

  Nuclear Dipole Moment: [e a0]
     X:  -102.4221      Y:  -129.0981      Z:   128.4908

  Electronic Dipole Moment: [e a0]
     X:   103.2259      Y:   129.2613      Z:  -129.8232

  Dipole Moment: [e a0]
     X:     0.8038      Y:     0.1633      Z:    -1.3324     Total:     1.5646

  Dipole Moment: [D]
     X:     2.0431      Y:     0.4150      Z:    -3.3867     Total:     3.9769


*** tstop() called on ds1 at Tue Sep 14 17:21:20 2021
Module time:
	user time   =      17.12 seconds =       0.29 minutes
	system time =       0.34 seconds =       0.01 minutes
	total time  =          4 seconds =       0.07 minutes
Total time:
	user time   =      42.80 seconds =       0.71 minutes
	system time =       1.01 seconds =       0.02 minutes
	total time  =          9 seconds =       0.15 minutes

  //>>>>>>>>>>>>>>>>>>>>>>>>>>>>>>>>>>>//
  //            Monomer B HF           //
  //<<<<<<<<<<<<<<<<<<<<<<<<<<<<<<<<<<<//


*** tstart() called on ds1
*** at Tue Sep 14 17:21:20 2021

   => Loading Basis Set <=

    Name: AUG-CC-PVDZ
    Role: ORBITAL
    Keyword: BASIS
    atoms 1-2, 10-11 entry N          line   218 file /theoryfs2/ds/csargent/miniconda3/envs/cle/share/psi4/basis/aug-cc-pvdz.gbs
    atoms 3-6, 12-15 entry H          line    40 file /theoryfs2/ds/csargent/miniconda3/envs/cle/share/psi4/basis/aug-cc-pvdz.gbs
    atoms 7-9, 16-18 entry C          line   182 file /theoryfs2/ds/csargent/miniconda3/envs/cle/share/psi4/basis/aug-cc-pvdz.gbs


         ---------------------------------------------------------
                                   SCF
               by Justin Turney, Rob Parrish, Andy Simmonett
                          and Daniel G. A. Smith
                              RHF Reference
                        6 Threads,   6675 MiB Core
         ---------------------------------------------------------

  ==> Geometry <==

    Molecular point group: c1
    Full point group: C1

    Geometry (in Bohr), charge = 0, multiplicity = 1:

       Center              X                  Y                   Z               Mass
    ------------   -----------------  -----------------  -----------------  -----------------
      Gh(N)          -4.293096210000    -3.068374310000     5.305162310000    14.003074004430
      Gh(N)          -2.158473710000    -2.926272960000     1.720374480000    14.003074004430
      Gh(H)          -0.025455870000    -6.359035750000     2.220464520000     1.007825032230
      Gh(H)          -2.685669680000    -6.532602410000     6.614459540000     1.007825032230
      Gh(H)          -4.743884230000    -0.006090060000     2.756159680000     1.007825032230
      Gh(H)          -1.410455400000    -2.247231470000     0.000000000000     1.007825032230
      Gh(C)          -1.437379910000    -5.075048480000     2.940658910000    12.000000000000
      Gh(C)          -2.769007820000    -5.146099160000     5.135228800000    12.000000000000
      Gh(C)          -3.859550360000    -1.777281980000     3.210934110000    12.000000000000
         N           -5.174819810000     9.046781420000   -18.971053270000    14.003074004430
         N           -3.040197310000     8.904680070000   -22.555841100000    14.003074004430
         H           -0.907179460000    12.337442860000   -22.055751060000     1.007825032230
         H           -3.567393280000    12.511009520000   -17.661756040000     1.007825032230
         H           -5.625607820000     5.984497170000   -21.520055910000     1.007825032230
         H           -2.292179000000     8.225638580000   -24.276215580000     1.007825032230
         C           -2.319103510000    11.053455590000   -21.335556670000    12.000000000000
         C           -3.650731420000    11.124506270000   -19.140986780000    12.000000000000
         C           -4.741273950000     7.755689090000   -21.065281470000    12.000000000000

  Running in c1 symmetry.

  Rotational constants: A =      0.03905  B =      0.00158  C =      0.00154 [cm^-1]
  Rotational constants: A =   1170.72214  B =     47.41006  C =     46.28500 [MHz]
  Nuclear repulsion =  164.086696030978288

  Charge       = 0
  Multiplicity = 1
  Electrons    = 36
  Nalpha       = 18
  Nbeta        = 18

  ==> Algorithm <==

  SCF Algorithm Type is DF.
  DIIS enabled.
  MOM disabled.
  Fractional occupation disabled.
  Guess Type is SAD.
  Energy threshold   = 1.00e-10
  Density threshold  = 1.00e-10
  Integral threshold = 1.00e-12

  ==> Primary Basis <==

  Basis Set: AUG-CC-PVDZ
    Blend: AUG-CC-PVDZ
    Number of shells: 130
    Number of basis functions: 302
    Number of Cartesian functions: 322
    Spherical Harmonics?: true
    Max angular momentum: 2

   => Loading Basis Set <=

    Name: (AUG-CC-PVDZ AUX)
    Role: JKFIT
    Keyword: DF_BASIS_SCF
    atoms 1-2, 10-11 entry N          line   212 file /theoryfs2/ds/csargent/miniconda3/envs/cle/share/psi4/basis/aug-cc-pvdz-jkfit.gbs
    atoms 3-6, 12-15 entry H          line    70 file /theoryfs2/ds/csargent/miniconda3/envs/cle/share/psi4/basis/aug-cc-pvdz-jkfit.gbs
    atoms 7-9, 16-18 entry C          line   154 file /theoryfs2/ds/csargent/miniconda3/envs/cle/share/psi4/basis/aug-cc-pvdz-jkfit.gbs

  ==> Integral Setup <==

  ==> DiskDFJK: Density-Fitted J/K Matrices <==

    J tasked:                  Yes
    K tasked:                  Yes
    wK tasked:                  No
    OpenMP threads:              6
    Integrals threads:           6
    Memory [MiB]:             5006
    Algorithm:                Core
    Integral Cache:           LOAD
    Schwarz Cutoff:          1E-12
    Fitting Condition:       1E-10

   => Auxiliary Basis Set <=

  Basis Set: (AUG-CC-PVDZ AUX)
    Blend: AUG-CC-PVDZ-JKFIT
    Number of shells: 376
    Number of basis functions: 1116
    Number of Cartesian functions: 1290
    Spherical Harmonics?: true
    Max angular momentum: 3

  Minimum eigenvalue in the overlap matrix is 2.1817209576E-05.
  Reciprocal condition number of the overlap matrix is 1.8377745512E-06.
    Using symmetric orthogonalization.

  ==> Pre-Iterations <==

  SCF Guess: Superposition of Atomic Densities via on-the-fly atomic UHF (no occupation information).

   -------------------------
    Irrep   Nso     Nmo
   -------------------------
     A        302     302
   -------------------------
    Total     302     302
   -------------------------

  ==> Iterations <==

                           Total Energy        Delta E     RMS |[F,P]|

   @DF-RHF iter SAD:  -224.55857170227745   -2.24559e+02   0.00000e+00
   @DF-RHF iter   1:  -224.69806465268567   -1.39493e-01   1.63067e-03 DIIS
   @DF-RHF iter   2:  -224.80532027235125   -1.07256e-01   9.27384e-04 DIIS
   @DF-RHF iter   3:  -224.84168817766414   -3.63679e-02   1.74019e-04 DIIS
   @DF-RHF iter   4:  -224.84337342979370   -1.68525e-03   7.98972e-05 DIIS
   @DF-RHF iter   5:  -224.84367501051065   -3.01581e-04   1.26452e-05 DIIS
   @DF-RHF iter   6:  -224.84369234754323   -1.73370e-05   5.61871e-06 DIIS
   @DF-RHF iter   7:  -224.84369543561300   -3.08807e-06   2.19503e-06 DIIS
   @DF-RHF iter   8:  -224.84369616753119   -7.31918e-07   7.77587e-07 DIIS
   @DF-RHF iter   9:  -224.84369627832513   -1.10794e-07   1.87961e-07 DIIS
   @DF-RHF iter  10:  -224.84369628386082   -5.53570e-09   7.33125e-08 DIIS
   @DF-RHF iter  11:  -224.84369628468727   -8.26446e-10   3.26918e-08 DIIS
   @DF-RHF iter  12:  -224.84369628483947   -1.52198e-10   9.70884e-09 DIIS
   @DF-RHF iter  13:  -224.84369628485234   -1.28750e-11   3.58840e-09 DIIS
   @DF-RHF iter  14:  -224.84369628485385   -1.50635e-12   1.58275e-09 DIIS
   @DF-RHF iter  15:  -224.84369628485445   -5.96856e-13   5.27556e-10 DIIS
   @DF-RHF iter  16:  -224.84369628485442    2.84217e-14   2.34517e-10 DIIS
   @DF-RHF iter  17:  -224.84369628485427    1.42109e-13   4.71140e-11 DIIS
  Energy and wave function converged.


  ==> Post-Iterations <==

    Orbital Energies [Eh]
    ---------------------

    Doubly Occupied:

       1A    -15.637071     2A    -15.551216     3A    -11.300916
       4A    -11.263160     5A    -11.245653     6A     -1.352867
       7A     -1.169098     8A     -1.012098     9A     -0.824390
      10A     -0.803731    11A     -0.760666    12A     -0.610096
      13A     -0.603958    14A     -0.601922    15A     -0.570942
      16A     -0.435483    17A     -0.400464    18A     -0.320685

    Virtual:

      19A      0.024192    20A      0.025388    21A      0.041565
      22A      0.041946    23A      0.044992    24A      0.050006
      25A      0.061863    26A      0.069642    27A      0.078149
      28A      0.087985    29A      0.089096    30A      0.099160
      31A      0.101431    32A      0.120828    33A      0.125502
      34A      0.126198    35A      0.126628    36A      0.128338
      37A      0.128840    38A      0.133466    39A      0.133769
      40A      0.135983    41A      0.139729    42A      0.140942
      43A      0.156498    44A      0.157914    45A      0.158793
      46A      0.172036    47A      0.178189    48A      0.187218
      49A      0.194134    50A      0.209534    51A      0.211000
      52A      0.211558    53A      0.214096    54A      0.220266
      55A      0.221970    56A      0.224100    57A      0.232350
      58A      0.234861    59A      0.241408    60A      0.261621
      61A      0.267806    62A      0.273902    63A      0.277915
      64A      0.301076    65A      0.301762    66A      0.308082
      67A      0.314441    68A      0.320930    69A      0.338205
      70A      0.361485    71A      0.361981    72A      0.370749
      73A      0.376930    74A      0.379815    75A      0.388294
      76A      0.395130    77A      0.397112    78A      0.417036
      79A      0.428819    80A      0.429057    81A      0.436675
      82A      0.441987    83A      0.450825    84A      0.452059
      85A      0.453931    86A      0.466348    87A      0.469830
      88A      0.481227    89A      0.482761    90A      0.486285
      91A      0.488151    92A      0.518957    93A      0.522285
      94A      0.537835    95A      0.540026    96A      0.544769
      97A      0.551714    98A      0.556417    99A      0.557681
     100A      0.568287   101A      0.576486   102A      0.581173
     103A      0.589272   104A      0.594249   105A      0.598939
     106A      0.607937   107A      0.613903   108A      0.616080
     109A      0.620130   110A      0.636538   111A      0.641337
     112A      0.652507   113A      0.669282   114A      0.671338
     115A      0.678185   116A      0.679314   117A      0.683876
     118A      0.685400   119A      0.712853   120A      0.714698
     121A      0.725762   122A      0.737654   123A      0.741239
     124A      0.757920   125A      0.762699   126A      0.767401
     127A      0.790931   128A      0.793606   129A      0.799935
     130A      0.809751   131A      0.812134   132A      0.814378
     133A      0.824766   134A      0.838126   135A      0.860390
     136A      0.861203   137A      0.871425   138A      0.885763
     139A      0.888244   140A      0.889827   141A      0.911453
     142A      0.921305   143A      0.928521   144A      0.954351
     145A      0.970427   146A      0.976964   147A      0.993488
     148A      0.998360   149A      1.010706   150A      1.017114
     151A      1.017404   152A      1.030676   153A      1.060567
     154A      1.077356   155A      1.080378   156A      1.084552
     157A      1.105388   158A      1.117666   159A      1.126986
     160A      1.134287   161A      1.140501   162A      1.149566
     163A      1.167172   164A      1.172507   165A      1.175820
     166A      1.199314   167A      1.212376   168A      1.217445
     169A      1.260723   170A      1.279767   171A      1.292400
     172A      1.298661   173A      1.302539   174A      1.314285
     175A      1.319861   176A      1.349286   177A      1.385028
     178A      1.385917   179A      1.398146   180A      1.451143
     181A      1.496713   182A      1.503290   183A      1.517623
     184A      1.518410   185A      1.543105   186A      1.574127
     187A      1.574292   188A      1.596384   189A      1.652159
     190A      1.662670   191A      1.671511   192A      1.705288
     193A      1.724478   194A      1.782643   195A      1.799071
     196A      1.807064   197A      1.864960   198A      1.881478
     199A      1.924392   200A      1.964988   201A      2.022006
     202A      2.025431   203A      2.041285   204A      2.072981
     205A      2.102853   206A      2.107054   207A      2.121330
     208A      2.126760   209A      2.133051   210A      2.135965
     211A      2.151155   212A      2.168671   213A      2.178817
     214A      2.186545   215A      2.231480   216A      2.254426
     217A      2.267082   218A      2.275964   219A      2.300924
     220A      2.310302   221A      2.328990   222A      2.332073
     223A      2.378783   224A      2.407679   225A      2.415035
     226A      2.417758   227A      2.457451   228A      2.472691
     229A      2.495709   230A      2.496920   231A      2.514030
     232A      2.527801   233A      2.545348   234A      2.547245
     235A      2.578592   236A      2.585745   237A      2.601590
     238A      2.633765   239A      2.698051   240A      2.734095
     241A      2.747025   242A      2.767090   243A      2.792417
     244A      2.794149   245A      2.803448   246A      2.830524
     247A      2.837642   248A      2.867213   249A      2.897784
     250A      2.934976   251A      2.951270   252A      2.952739
     253A      2.980862   254A      3.045534   255A      3.051201
     256A      3.069911   257A      3.078123   258A      3.134013
     259A      3.161642   260A      3.184815   261A      3.199164
     262A      3.208796   263A      3.215222   264A      3.334816
     265A      3.342761   266A      3.354572   267A      3.356735
     268A      3.364732   269A      3.460703   270A      3.496392
     271A      3.518553   272A      3.571686   273A      3.610799
     274A      3.709260   275A      3.728681   276A      3.768294
     277A      3.780365   278A      3.800277   279A      3.859844
     280A      3.872731   281A      4.005845   282A      4.109028
     283A      4.214847   284A      4.638644   285A      4.640738
     286A      4.697848   287A      4.773834   288A      4.882102
     289A      5.023376   290A      5.256652   291A      5.375135
     292A      5.496752   293A      5.612257   294A      5.718309
     295A      5.885961   296A      6.091797   297A      6.200187
     298A     18.257242   299A     18.592331   300A     19.302199
     301A     25.313863   302A     25.455397

    Final Occupation by Irrep:
              A
    DOCC [    18 ]

  @DF-RHF Final Energy:  -224.84369628485427

   => Energetics <=

    Nuclear Repulsion Energy =            164.0866960309782883
    One-Electron Energy =                -628.9319564213893727
    Two-Electron Energy =                 240.0015641055568381
    Total Energy =                       -224.8436962848542748

Computation Completed


Properties will be evaluated at   0.000000,   0.000000,   0.000000 [a0]

Properties computed using the SCF density matrix

  Nuclear Dipole Moment: [e a0]
     X:  -134.1641      Y:   344.3207      Z:  -745.4530

  Electronic Dipole Moment: [e a0]
     X:   134.9679      Y:  -344.4840      Z:   744.1206

  Dipole Moment: [e a0]
     X:     0.8038      Y:    -0.1633      Z:    -1.3324     Total:     1.5646

  Dipole Moment: [D]
     X:     2.0431      Y:    -0.4150      Z:    -3.3867     Total:     3.9769


*** tstop() called on ds1 at Tue Sep 14 17:21:23 2021
Module time:
	user time   =      17.07 seconds =       0.28 minutes
	system time =       0.34 seconds =       0.01 minutes
	total time  =          3 seconds =       0.05 minutes
Total time:
	user time   =      60.02 seconds =       1.00 minutes
	system time =       1.35 seconds =       0.02 minutes
	total time  =         12 seconds =       0.20 minutes
  Constructing Basis Sets for SAPT...

   => Loading Basis Set <=

    Name: (AUG-CC-PVDZ AUX)
    Role: RIFIT
    Keyword: DF_BASIS_SAPT
    atoms 1-2, 10-11 entry N          line   158 file /theoryfs2/ds/csargent/miniconda3/envs/cle/share/psi4/basis/aug-cc-pvdz-ri.gbs
    atoms 3-6, 12-15 entry H          line    30 file /theoryfs2/ds/csargent/miniconda3/envs/cle/share/psi4/basis/aug-cc-pvdz-ri.gbs
    atoms 7-9, 16-18 entry C          line   112 file /theoryfs2/ds/csargent/miniconda3/envs/cle/share/psi4/basis/aug-cc-pvdz-ri.gbs


  //>>>>>>>>>>>>>>>>>>>>>>>>>>>>>>>>>>>//
  //               SAPT0               //
  //<<<<<<<<<<<<<<<<<<<<<<<<<<<<<<<<<<<//


*** tstart() called on ds1
*** at Tue Sep 14 17:21:24 2021

        SAPT0
    Ed Hohenstein
     6 June 2009

      Orbital Information
  --------------------------
    NSO        =       302
    NMO        =       302
    NRI        =       904
    NOCC A     =        18
    NOCC B     =        18
    FOCC A     =         5
    FOCC B     =         5
    NVIR A     =       284
    NVIR B     =       284

    Elst10,r            =    -0.000131761633 [Eh]
    Exch10              =     0.000000000003 [Eh]
    Exch10 (S^2)        =     0.000000000003 [Eh]

    Iter     Energy [mEh]          dE [mEh]         Residual      Time [s]
       1      -0.00041246       0.000412463       0.202805379             0
       2      -0.00039304      -0.000019419       0.056702868             0
       3      -0.00043641       0.000043372       0.020936138             0
       4      -0.00044054       0.000004123       0.008115665             0
       5      -0.00043934      -0.000001199       0.004259926             0
       6      -0.00043875      -0.000000588       0.001229950             0
       7      -0.00043891       0.000000155       0.000393641             0
       8      -0.00043897       0.000000059       0.000120921             1
       9      -0.00043896      -0.000000008       0.000046019             1
      10      -0.00043895      -0.000000009       0.000011609             1
      11      -0.00043895       0.000000002       0.000004534             1
      12      -0.00043895       0.000000001       0.000001451             1
      13      -0.00043895      -0.000000000       0.000000515             1

    CHF Iterations converged


    Iter     Energy [mEh]          dE [mEh]         Residual      Time [s]
       1      -0.00043500       0.000434997       0.208836366             0
       2      -0.00039685      -0.000038146       0.055347211             0
       3      -0.00042081       0.000023963       0.026229653             1
       4      -0.00043367       0.000012855       0.004777758             1
       5      -0.00043275      -0.000000915       0.002114641             1
       6      -0.00043235      -0.000000400       0.000687543             1
       7      -0.00043243       0.000000081       0.000285209             1
       8      -0.00043246       0.000000025       0.000112151             1
       9      -0.00043245      -0.000000005       0.000041646             1
      10      -0.00043245      -0.000000005       0.000009889             1
      11      -0.00043245       0.000000001       0.000003215             2
      12      -0.00043245       0.000000000       0.000000905             2

    CHF Iterations converged

    Ind20,r (A<-B)      =    -0.000000438951 [Eh]
    Ind20,r (B<-A)      =    -0.000000432451 [Eh]
    Ind20,r             =    -0.000000871401 [Eh]
    Exch-Ind20,r (A<-B) =     0.000000000004 [Eh]
    Exch-Ind20,r (B<-A) =     0.000000000003 [Eh]
    Exch-Ind20,r        =     0.000000000007 [Eh]
    Disp20              =    -0.000003039423 [Eh]
    Disp20 (SS)         =    -0.000001519711 [Eh]
    Disp20 (OS)         =    -0.000001519711 [Eh]
    Exch-Disp20         =     0.000000000000 [Eh]
    Exch-Disp20 (SS)    =     0.000000000000 [Eh]
    Exch-Disp20 (OS)    =     0.000000000000 [Eh]

    SAPT Results
  --------------------------------------------------------------------------------------------------------
    Electrostatics                 -0.13176163 [mEh]      -0.08268167 [kcal/mol]      -0.34594012 [kJ/mol]
      Elst10,r                     -0.13176163 [mEh]      -0.08268167 [kcal/mol]      -0.34594012 [kJ/mol]

    Exchange                        0.00000000 [mEh]       0.00000000 [kcal/mol]       0.00000001 [kJ/mol]
      Exch10                        0.00000000 [mEh]       0.00000000 [kcal/mol]       0.00000001 [kJ/mol]
      Exch10(S^2)                   0.00000000 [mEh]       0.00000000 [kcal/mol]       0.00000001 [kJ/mol]

    Induction                      -0.00089760 [mEh]      -0.00056326 [kcal/mol]      -0.00235666 [kJ/mol]
      Ind20,r                      -0.00087140 [mEh]      -0.00054681 [kcal/mol]      -0.00228786 [kJ/mol]
      Exch-Ind20,r                  0.00000001 [mEh]       0.00000000 [kcal/mol]       0.00000002 [kJ/mol]
      delta HF,r (2)               -0.00002621 [mEh]      -0.00001645 [kcal/mol]      -0.00006881 [kJ/mol]

    Dispersion                     -0.00303942 [mEh]      -0.00190727 [kcal/mol]      -0.00798000 [kJ/mol]
      Disp20                       -0.00303942 [mEh]      -0.00190727 [kcal/mol]      -0.00798000 [kJ/mol]
      Exch-Disp20                   0.00000000 [mEh]       0.00000000 [kcal/mol]       0.00000000 [kJ/mol]
      Disp20 (SS)                  -0.00151971 [mEh]      -0.00095363 [kcal/mol]      -0.00399000 [kJ/mol]
      Disp20 (OS)                  -0.00151971 [mEh]      -0.00095363 [kcal/mol]      -0.00399000 [kJ/mol]
      Exch-Disp20 (SS)              0.00000000 [mEh]       0.00000000 [kcal/mol]       0.00000000 [kJ/mol]
      Exch-Disp20 (OS)              0.00000000 [mEh]       0.00000000 [kcal/mol]       0.00000000 [kJ/mol]

  Total HF                         -0.13265923 [mEh]      -0.08324493 [kcal/mol]      -0.34829677 [kJ/mol]
  Total SAPT0                      -0.13569866 [mEh]      -0.08515219 [kcal/mol]      -0.35627677 [kJ/mol]

  Special recipe for scaled SAPT0 (see Manual):
    Electrostatics sSAPT0          -0.13176163 [mEh]      -0.08268167 [kcal/mol]      -0.34594012 [kJ/mol]
    Exchange sSAPT0                 0.00000000 [mEh]       0.00000000 [kcal/mol]       0.00000001 [kJ/mol]
    Induction sSAPT0               -0.00089760 [mEh]      -0.00056326 [kcal/mol]      -0.00235666 [kJ/mol]
    Dispersion sSAPT0              -0.00303942 [mEh]      -0.00190727 [kcal/mol]      -0.00798000 [kJ/mol]
  Total sSAPT0                     -0.13569866 [mEh]      -0.08515219 [kcal/mol]      -0.35627677 [kJ/mol]
  --------------------------------------------------------------------------------------------------------

*** tstop() called on ds1 at Tue Sep 14 17:21:33 2021
Module time:
	user time   =      45.84 seconds =       0.76 minutes
	system time =       4.01 seconds =       0.07 minutes
	total time  =          9 seconds =       0.15 minutes
Total time:
	user time   =     106.65 seconds =       1.78 minutes
	system time =       5.39 seconds =       0.09 minutes
	total time  =         22 seconds =       0.37 minutes


Warning! sapt0 does not have an associated derived wavefunction.The returned wavefunction is the dimer SCF wavefunction.


    Psi4 stopped on: Tuesday, 14 September 2021 05:21PM
    Psi4 wall time for execution: 0:00:22.69

*** Psi4 exiting successfully. Buy a developer a beer!
