
    -----------------------------------------------------------------------
          Psi4: An Open-Source Ab Initio Electronic Structure Package
                               Psi4 1.4rc3

                         Git: Rev {HEAD} 080dba6


    D. G. A. Smith, L. A. Burns, A. C. Simmonett, R. M. Parrish,
    M. C. Schieber, R. Galvelis, P. Kraus, H. Kruse, R. Di Remigio,
    A. Alenaizan, A. M. James, S. Lehtola, J. P. Misiewicz, M. Scheurer,
    R. A. Shaw, J. B. Schriber, Y. Xie, Z. L. Glick, D. A. Sirianni,
    J. S. O'Brien, J. M. Waldrop, A. Kumar, E. G. Hohenstein,
    B. P. Pritchard, B. R. Brooks, H. F. Schaefer III, A. Yu. Sokolov,
    K. Patkowski, A. E. DePrince III, U. Bozkaya, R. A. King,
    F. A. Evangelista, J. M. Turney, T. D. Crawford, C. D. Sherrill,
    J. Chem. Phys. 152(18) 184108 (2020). https://doi.org/10.1063/5.0006002

                            Additional Code Authors
    E. T. Seidl, C. L. Janssen, E. F. Valeev, M. L. Leininger,
    J. F. Gonthier, R. M. Richard, H. R. McAlexander, M. Saitow, X. Wang,
    P. Verma, and M. H. Lechner

             Previous Authors, Complete List of Code Contributors,
                       and Citations for Specific Modules
    https://github.com/psi4/psi4/blob/master/codemeta.json
    https://github.com/psi4/psi4/graphs/contributors
    http://psicode.org/psi4manual/master/introduction.html#citing-psifour

    -----------------------------------------------------------------------


    Psi4 started on: Tuesday, 14 September 2021 04:36PM

    Process ID: 505
    Host:       ds1
    PSIDATADIR: /theoryfs2/ds/csargent/miniconda3/envs/cle/share/psi4
    Memory:     500.0 MiB
    Threads:    6

  ==> Input File <==

--------------------------------------------------------------------------
# PSI4 file produced by CrystaLattE

# Generated from:               imidazole.xyz
# Psithon input for N-mer:      2mer-0+325
# Number of atoms per monomer:  [9, 9]
# Number of replicas:           1
# COM priority:                 2.639280759560e-05
# Minimum COM separations:      17.773
# Separation priority:          4.672226494162e-05
# Minimum monomer separations:  14.692
# Cutoff priority:              1.682797469883e-06
# Nuclear repulsion energy:     366.7398358026991

memory 7 GB

molecule Dimer_0_325 {
  N           -4.29309621      -3.06837431       5.30516231
  N           -2.15847371      -2.92627296       1.72037448
  H           -0.02545587      -6.35903575       2.22046452
  H           -2.68566968      -6.53260241       6.61445954
  H           -4.74388423      -0.00609006       2.75615968
  H           -1.41045540      -2.24723147       0.00000000
  C           -1.43737991      -5.07504848       2.94065891
  C           -2.76900782      -5.14609916       5.13522880
  C           -3.85955036      -1.77728198       3.21093411
--
  N          -28.02245393      14.12182991      11.49074204
  N          -30.15707643      13.97972855      15.07552988
  H          -32.29009428      17.41249134      14.57543984
  H          -29.62988046      17.58605800      10.18144482
  H          -27.57166592      11.05954565      14.03974468
  H          -30.90509474      13.30068706      16.79590435
  C          -30.87817023      16.12850408      13.85524544
  C          -29.54654232      16.19955476      11.66067555
  C          -28.45599979      12.83073757      13.58497024
units = au
no_com
no_reorient
}

set {
  e_convergence 10
  d_convergence 10
  scf_type df
  mp2_type df
  cc_type df
  freeze_core true
}

energy('sapt0/aug-cc-pvdz')

--------------------------------------------------------------------------

  Memory set to   6.519 GiB by Python driver.

Scratch directory: /scratch/csargent/psi4.31446.79897/

Scratch directory: /scratch/csargent/psi4.31446.79897/

  //>>>>>>>>>>>>>>>>>>>>>>>>>>>>>>>>>>>//
  //              Dimer HF             //
  //<<<<<<<<<<<<<<<<<<<<<<<<<<<<<<<<<<<//


*** tstart() called on ds1
*** at Tue Sep 14 16:36:47 2021

   => Loading Basis Set <=

    Name: AUG-CC-PVDZ
    Role: ORBITAL
    Keyword: BASIS
    atoms 1-2, 10-11 entry N          line   218 file /theoryfs2/ds/csargent/miniconda3/envs/cle/share/psi4/basis/aug-cc-pvdz.gbs
    atoms 3-6, 12-15 entry H          line    40 file /theoryfs2/ds/csargent/miniconda3/envs/cle/share/psi4/basis/aug-cc-pvdz.gbs
    atoms 7-9, 16-18 entry C          line   182 file /theoryfs2/ds/csargent/miniconda3/envs/cle/share/psi4/basis/aug-cc-pvdz.gbs


         ---------------------------------------------------------
                                   SCF
               by Justin Turney, Rob Parrish, Andy Simmonett
                          and Daniel G. A. Smith
                              RHF Reference
                        6 Threads,   6675 MiB Core
         ---------------------------------------------------------

  ==> Geometry <==

    Molecular point group: c1
    Full point group: C1

    Geometry (in Bohr), charge = 0, multiplicity = 1:

       Center              X                  Y                   Z               Mass
    ------------   -----------------  -----------------  -----------------  -----------------
         N           -4.293096210000    -3.068374310000     5.305162310000    14.003074004430
         N           -2.158473710000    -2.926272960000     1.720374480000    14.003074004430
         H           -0.025455870000    -6.359035750000     2.220464520000     1.007825032230
         H           -2.685669680000    -6.532602410000     6.614459540000     1.007825032230
         H           -4.743884230000    -0.006090060000     2.756159680000     1.007825032230
         H           -1.410455400000    -2.247231470000     0.000000000000     1.007825032230
         C           -1.437379910000    -5.075048480000     2.940658910000    12.000000000000
         C           -2.769007820000    -5.146099160000     5.135228800000    12.000000000000
         C           -3.859550360000    -1.777281980000     3.210934110000    12.000000000000
         N          -28.022453930000    14.121829910000    11.490742040000    14.003074004430
         N          -30.157076430000    13.979728550000    15.075529880000    14.003074004430
         H          -32.290094280000    17.412491340000    14.575439840000     1.007825032230
         H          -29.629880460000    17.586058000000    10.181444820000     1.007825032230
         H          -27.571665920000    11.059545650000    14.039744680000     1.007825032230
         H          -30.905094740000    13.300687060000    16.795904350000     1.007825032230
         C          -30.878170230000    16.128504080000    13.855245440000    12.000000000000
         C          -29.546542320000    16.199554760000    11.660675550000    12.000000000000
         C          -28.455999790000    12.830737570000    13.584970240000    12.000000000000

  Running in c1 symmetry.

  Rotational constants: A =      0.02553  B =      0.00070  C =      0.00068 [cm^-1]
  Rotational constants: A =    765.38831  B =     20.96214  C =     20.42819 [MHz]
  Nuclear repulsion =  366.739835760726635

  Charge       = 0
  Multiplicity = 1
  Electrons    = 72
  Nalpha       = 36
  Nbeta        = 36

  ==> Algorithm <==

  SCF Algorithm Type is DF.
  DIIS enabled.
  MOM disabled.
  Fractional occupation disabled.
  Guess Type is SAD.
  Energy threshold   = 1.00e-10
  Density threshold  = 1.00e-10
  Integral threshold = 1.00e-12

  ==> Primary Basis <==

  Basis Set: AUG-CC-PVDZ
    Blend: AUG-CC-PVDZ
    Number of shells: 130
    Number of basis functions: 302
    Number of Cartesian functions: 322
    Spherical Harmonics?: true
    Max angular momentum: 2

   => Loading Basis Set <=

    Name: (AUG-CC-PVDZ AUX)
    Role: JKFIT
    Keyword: DF_BASIS_SCF
    atoms 1-2, 10-11 entry N          line   212 file /theoryfs2/ds/csargent/miniconda3/envs/cle/share/psi4/basis/aug-cc-pvdz-jkfit.gbs
    atoms 3-6, 12-15 entry H          line    70 file /theoryfs2/ds/csargent/miniconda3/envs/cle/share/psi4/basis/aug-cc-pvdz-jkfit.gbs
    atoms 7-9, 16-18 entry C          line   154 file /theoryfs2/ds/csargent/miniconda3/envs/cle/share/psi4/basis/aug-cc-pvdz-jkfit.gbs

  ==> Integral Setup <==

  ==> DiskDFJK: Density-Fitted J/K Matrices <==

    J tasked:                  Yes
    K tasked:                  Yes
    wK tasked:                  No
    OpenMP threads:              6
    Integrals threads:           6
    Memory [MiB]:             5006
    Algorithm:                Core
    Integral Cache:           SAVE
    Schwarz Cutoff:          1E-12
    Fitting Condition:       1E-10

   => Auxiliary Basis Set <=

  Basis Set: (AUG-CC-PVDZ AUX)
    Blend: AUG-CC-PVDZ-JKFIT
    Number of shells: 376
    Number of basis functions: 1116
    Number of Cartesian functions: 1290
    Spherical Harmonics?: true
    Max angular momentum: 3

  Minimum eigenvalue in the overlap matrix is 2.1836748540E-05.
  Reciprocal condition number of the overlap matrix is 1.8394248864E-06.
    Using symmetric orthogonalization.

  ==> Pre-Iterations <==

  SCF Guess: Superposition of Atomic Densities via on-the-fly atomic UHF (no occupation information).

   -------------------------
    Irrep   Nso     Nmo
   -------------------------
     A        302     302
   -------------------------
    Total     302     302
   -------------------------

  ==> Iterations <==

                           Total Energy        Delta E     RMS |[F,P]|

   @DF-RHF iter SAD:  -449.11714337914316   -4.49117e+02   0.00000e+00
   @DF-RHF iter   1:  -449.39618161936755   -2.79038e-01   2.30593e-03 DIIS
   @DF-RHF iter   2:  -449.61070616771838   -2.14525e-01   1.31100e-03 DIIS
   @DF-RHF iter   3:  -449.68338532654963   -7.26792e-02   2.46004e-04 DIIS
   @DF-RHF iter   4:  -449.68675395521484   -3.36863e-03   1.12936e-04 DIIS
   @DF-RHF iter   5:  -449.68735655008970   -6.02595e-04   1.78856e-05 DIIS
   @DF-RHF iter   6:  -449.68739123218597   -3.46821e-05   7.94471e-06 DIIS
   @DF-RHF iter   7:  -449.68739740768552   -6.17550e-06   3.10247e-06 DIIS
   @DF-RHF iter   8:  -449.68739887016602   -1.46248e-06   1.09932e-06 DIIS
   @DF-RHF iter   9:  -449.68739909147320   -2.21307e-07   2.65791e-07 DIIS
   @DF-RHF iter  10:  -449.68739910252089   -1.10477e-08   1.03848e-07 DIIS
   @DF-RHF iter  11:  -449.68739910417543   -1.65454e-09   4.61511e-08 DIIS
   @DF-RHF iter  12:  -449.68739910447863   -3.03203e-10   1.37258e-08 DIIS
   @DF-RHF iter  13:  -449.68739910450506   -2.64322e-11   5.06928e-09 DIIS
   @DF-RHF iter  14:  -449.68739910450853   -3.46745e-12   2.23315e-09 DIIS
   @DF-RHF iter  15:  -449.68739910450955   -1.02318e-12   7.45597e-10 DIIS
   @DF-RHF iter  16:  -449.68739910450921    3.41061e-13   3.31561e-10 DIIS
   @DF-RHF iter  17:  -449.68739910450927   -5.68434e-14   6.65041e-11 DIIS
  Energy and wave function converged.


  ==> Post-Iterations <==

    Orbital Energies [Eh]
    ---------------------

    Doubly Occupied:

       1A    -15.636214     2A    -15.636214     3A    -15.550342
       4A    -15.550342     5A    -11.300034     6A    -11.300034
       7A    -11.262354     8A    -11.262354     9A    -11.244859
      10A    -11.244859    11A     -1.352016    12A     -1.352016
      13A     -1.168245    14A     -1.168245    15A     -1.011264
      16A     -1.011264    17A     -0.823538    18A     -0.823538
      19A     -0.802904    20A     -0.802904    21A     -0.759809
      22A     -0.759809    23A     -0.609255    24A     -0.609255
      25A     -0.603108    26A     -0.603108    27A     -0.601100
      28A     -0.601100    29A     -0.570109    30A     -0.570109
      31A     -0.434617    32A     -0.434617    33A     -0.399619
      34A     -0.399619    35A     -0.319858    36A     -0.319858

    Virtual:

      37A      0.026251    38A      0.026253    39A      0.042441
      40A      0.042488    41A      0.050769    42A      0.050808
      43A      0.062673    44A      0.062738    45A      0.090003
      46A      0.090003    47A      0.102356    48A      0.102364
      49A      0.121735    50A      0.121739    51A      0.126293
      52A      0.126293    53A      0.134234    54A      0.134237
      55A      0.134491    56A      0.134513    57A      0.141740
      58A      0.141740    59A      0.157178    60A      0.157180
      61A      0.159764    62A      0.159903    63A      0.172585
      64A      0.172614    65A      0.179050    66A      0.179051
      67A      0.188162    68A      0.188312    69A      0.212450
      70A      0.212450    71A      0.221102    72A      0.221108
      73A      0.233187    74A      0.233193    75A      0.242221
      76A      0.242221    77A      0.262436    78A      0.262459
      79A      0.268664    80A      0.268667    81A      0.278778
      82A      0.278778    83A      0.302614    84A      0.302621
      85A      0.315416    86A      0.315417    87A      0.338956
      88A      0.338957    89A      0.362264    90A      0.362268
      91A      0.371584    92A      0.371585    93A      0.380621
      94A      0.380621    95A      0.389142    96A      0.389169
      97A      0.397905    98A      0.397947    99A      0.417833
     100A      0.417992   101A      0.429832   102A      0.429845
     103A      0.452945   104A      0.452945   105A      0.467216
     106A      0.467216   107A      0.482092   108A      0.482118
     109A      0.487060   110A      0.487065   111A      0.488976
     112A      0.488977   113A      0.552570   114A      0.552573
     115A      0.557198   116A      0.557226   117A      0.569130
     118A      0.569139   119A      0.577365   120A      0.577385
     121A      0.595083   122A      0.595088   123A      0.599763
     124A      0.599764   125A      0.616902   126A      0.616902
     127A      0.637321   128A      0.637339   129A      0.653350
     130A      0.653350   131A      0.670111   132A      0.670113
     133A      0.672161   134A      0.672162   135A      0.679057
     136A      0.679057   137A      0.684655   138A      0.684655
     139A      0.715526   140A      0.715526   141A      0.726599
     142A      0.726600   143A      0.742079   144A      0.742081
     145A      0.763537   146A      0.763547   147A      0.768245
     148A      0.768271   149A      0.791754   150A      0.791755
     151A      0.794517   152A      0.794518   153A      0.810584
     154A      0.810600   155A      0.861228   156A      0.861237
     157A      0.872251   158A      0.872254   159A      0.886606
     160A      0.886610   161A      0.890577   162A      0.890578
     163A      0.955192   164A      0.955192   165A      0.977827
     166A      0.977827   167A      0.999204   168A      0.999232
     169A      1.011560   170A      1.011562   171A      1.018227
     172A      1.018227   173A      1.031543   174A      1.031543
     175A      1.078220   176A      1.078225   177A      1.085421
     178A      1.085421   179A      1.127804   180A      1.127809
     181A      1.141318   182A      1.141347   183A      1.150408
     184A      1.150408   185A      1.167999   186A      1.168015
     187A      1.218297   188A      1.218297   189A      1.261535
     190A      1.261543   191A      1.303352   192A      1.303355
     193A      1.385901   194A      1.385903   195A      1.399003
     196A      1.399004   197A      1.451997   198A      1.451998
     199A      1.504142   200A      1.504146   201A      1.519249
     202A      1.519249   203A      1.574932   204A      1.574934
     205A      1.575093   206A      1.575104   207A      1.597193
     208A      1.597236   209A      1.652998   210A      1.652998
     211A      1.672298   212A      1.672299   213A      1.706085
     214A      1.706086   215A      1.725399   216A      1.725399
     217A      1.783459   218A      1.783460   219A      1.799874
     220A      1.799885   221A      1.807855   222A      1.807857
     223A      1.865788   224A      1.865824   225A      1.882377
     226A      1.882380   227A      1.925260   228A      1.925260
     229A      1.965834   230A      1.965835   231A      2.022834
     232A      2.022838   233A      2.026261   234A      2.026268
     235A      2.073813   236A      2.073815   237A      2.107886
     238A      2.107889   239A      2.127564   240A      2.127565
     241A      2.136771   242A      2.136771   243A      2.169499
     244A      2.169500   245A      2.179661   246A      2.179662
     247A      2.267927   248A      2.267927   249A      2.276828
     250A      2.276828   251A      2.301814   252A      2.301814
     253A      2.332933   254A      2.332933   255A      2.418560
     256A      2.418560   257A      2.497783   258A      2.497784
     259A      2.514877   260A      2.514878   261A      2.546219
     262A      2.546240   263A      2.586567   264A      2.586572
     265A      2.634600   266A      2.634600   267A      2.734893
     268A      2.734895   269A      2.747881   270A      2.747882
     271A      2.767910   272A      2.767916   273A      2.794991
     274A      2.794991   275A      2.804298   276A      2.804298
     277A      2.838488   278A      2.838492   279A      2.868080
     280A      2.868080   281A      2.953587   282A      2.953587
     283A      2.981723   284A      2.981723   285A      3.052020
     286A      3.052020   287A      3.070741   288A      3.070745
     289A      3.200029   290A      3.200031   291A      3.209632
     292A      3.209643   293A      3.335682   294A      3.335683
     295A      3.355415   296A      3.355420   297A      3.519398
     298A      3.519398   299A      3.769143   300A      3.769149
     301A      4.109838   302A      4.109844

    Final Occupation by Irrep:
              A
    DOCC [    36 ]

  @DF-RHF Final Energy:  -449.68739910450927

   => Energetics <=

    Nuclear Repulsion Energy =            366.7398357607266348
    One-Electron Energy =               -1335.0574965541006804
    Two-Electron Energy =                 518.6302616888647208
    Total Energy =                       -449.6873991045092680

Computation Completed


Properties will be evaluated at   0.000000,   0.000000,   0.000000 [a0]

Properties computed using the SCF density matrix

  Nuclear Dipole Moment: [e a0]
     X: -1163.3598      Y:   397.9244      Z:   604.6526

  Electronic Dipole Moment: [e a0]
     X:  1163.3598      Y:  -397.9244      Z:  -604.6526

  Dipole Moment: [e a0]
     X:    -0.0000      Y:    -0.0000      Z:    -0.0000     Total:     0.0000

  Dipole Moment: [D]
     X:    -0.0000      Y:    -0.0000      Z:    -0.0000     Total:     0.0000


*** tstop() called on ds1 at Tue Sep 14 16:36:51 2021
Module time:
	user time   =      22.13 seconds =       0.37 minutes
	system time =       0.54 seconds =       0.01 minutes
	total time  =          4 seconds =       0.07 minutes
Total time:
	user time   =      22.13 seconds =       0.37 minutes
	system time =       0.54 seconds =       0.01 minutes
	total time  =          4 seconds =       0.07 minutes

  //>>>>>>>>>>>>>>>>>>>>>>>>>>>>>>>>>>>//
  //            Monomer A HF           //
  //<<<<<<<<<<<<<<<<<<<<<<<<<<<<<<<<<<<//


*** tstart() called on ds1
*** at Tue Sep 14 16:36:51 2021

   => Loading Basis Set <=

    Name: AUG-CC-PVDZ
    Role: ORBITAL
    Keyword: BASIS
    atoms 1-2, 10-11 entry N          line   218 file /theoryfs2/ds/csargent/miniconda3/envs/cle/share/psi4/basis/aug-cc-pvdz.gbs
    atoms 3-6, 12-15 entry H          line    40 file /theoryfs2/ds/csargent/miniconda3/envs/cle/share/psi4/basis/aug-cc-pvdz.gbs
    atoms 7-9, 16-18 entry C          line   182 file /theoryfs2/ds/csargent/miniconda3/envs/cle/share/psi4/basis/aug-cc-pvdz.gbs


         ---------------------------------------------------------
                                   SCF
               by Justin Turney, Rob Parrish, Andy Simmonett
                          and Daniel G. A. Smith
                              RHF Reference
                        6 Threads,   6675 MiB Core
         ---------------------------------------------------------

  ==> Geometry <==

    Molecular point group: c1
    Full point group: C1

    Geometry (in Bohr), charge = 0, multiplicity = 1:

       Center              X                  Y                   Z               Mass
    ------------   -----------------  -----------------  -----------------  -----------------
         N           -4.293096210000    -3.068374310000     5.305162310000    14.003074004430
         N           -2.158473710000    -2.926272960000     1.720374480000    14.003074004430
         H           -0.025455870000    -6.359035750000     2.220464520000     1.007825032230
         H           -2.685669680000    -6.532602410000     6.614459540000     1.007825032230
         H           -4.743884230000    -0.006090060000     2.756159680000     1.007825032230
         H           -1.410455400000    -2.247231470000     0.000000000000     1.007825032230
         C           -1.437379910000    -5.075048480000     2.940658910000    12.000000000000
         C           -2.769007820000    -5.146099160000     5.135228800000    12.000000000000
         C           -3.859550360000    -1.777281980000     3.210934110000    12.000000000000
      Gh(N)         -28.022453930000    14.121829910000    11.490742040000    14.003074004430
      Gh(N)         -30.157076430000    13.979728550000    15.075529880000    14.003074004430
      Gh(H)         -32.290094280000    17.412491340000    14.575439840000     1.007825032230
      Gh(H)         -29.629880460000    17.586058000000    10.181444820000     1.007825032230
      Gh(H)         -27.571665920000    11.059545650000    14.039744680000     1.007825032230
      Gh(H)         -30.905094740000    13.300687060000    16.795904350000     1.007825032230
      Gh(C)         -30.878170230000    16.128504080000    13.855245440000    12.000000000000
      Gh(C)         -29.546542320000    16.199554760000    11.660675550000    12.000000000000
      Gh(C)         -28.455999790000    12.830737570000    13.584970240000    12.000000000000

  Running in c1 symmetry.

  Rotational constants: A =      0.02553  B =      0.00070  C =      0.00068 [cm^-1]
  Rotational constants: A =    765.38831  B =     20.96214  C =     20.42819 [MHz]
  Nuclear repulsion =  164.086695994184396

  Charge       = 0
  Multiplicity = 1
  Electrons    = 36
  Nalpha       = 18
  Nbeta        = 18

  ==> Algorithm <==

  SCF Algorithm Type is DF.
  DIIS enabled.
  MOM disabled.
  Fractional occupation disabled.
  Guess Type is SAD.
  Energy threshold   = 1.00e-10
  Density threshold  = 1.00e-10
  Integral threshold = 1.00e-12

  ==> Primary Basis <==

  Basis Set: AUG-CC-PVDZ
    Blend: AUG-CC-PVDZ
    Number of shells: 130
    Number of basis functions: 302
    Number of Cartesian functions: 322
    Spherical Harmonics?: true
    Max angular momentum: 2

   => Loading Basis Set <=

    Name: (AUG-CC-PVDZ AUX)
    Role: JKFIT
    Keyword: DF_BASIS_SCF
    atoms 1-2, 10-11 entry N          line   212 file /theoryfs2/ds/csargent/miniconda3/envs/cle/share/psi4/basis/aug-cc-pvdz-jkfit.gbs
    atoms 3-6, 12-15 entry H          line    70 file /theoryfs2/ds/csargent/miniconda3/envs/cle/share/psi4/basis/aug-cc-pvdz-jkfit.gbs
    atoms 7-9, 16-18 entry C          line   154 file /theoryfs2/ds/csargent/miniconda3/envs/cle/share/psi4/basis/aug-cc-pvdz-jkfit.gbs

  ==> Integral Setup <==

  ==> DiskDFJK: Density-Fitted J/K Matrices <==

    J tasked:                  Yes
    K tasked:                  Yes
    wK tasked:                  No
    OpenMP threads:              6
    Integrals threads:           6
    Memory [MiB]:             5006
    Algorithm:                Core
    Integral Cache:           LOAD
    Schwarz Cutoff:          1E-12
    Fitting Condition:       1E-10

   => Auxiliary Basis Set <=

  Basis Set: (AUG-CC-PVDZ AUX)
    Blend: AUG-CC-PVDZ-JKFIT
    Number of shells: 376
    Number of basis functions: 1116
    Number of Cartesian functions: 1290
    Spherical Harmonics?: true
    Max angular momentum: 3

  Minimum eigenvalue in the overlap matrix is 2.1836748540E-05.
  Reciprocal condition number of the overlap matrix is 1.8394248864E-06.
    Using symmetric orthogonalization.

  ==> Pre-Iterations <==

  SCF Guess: Superposition of Atomic Densities via on-the-fly atomic UHF (no occupation information).

   -------------------------
    Irrep   Nso     Nmo
   -------------------------
     A        302     302
   -------------------------
    Total     302     302
   -------------------------

  ==> Iterations <==

                           Total Energy        Delta E     RMS |[F,P]|

   @DF-RHF iter SAD:  -224.55857169660794   -2.24559e+02   0.00000e+00
   @DF-RHF iter   1:  -224.69806464859738   -1.39493e-01   1.63067e-03 DIIS
   @DF-RHF iter   2:  -224.80532026773912   -1.07256e-01   9.27384e-04 DIIS
   @DF-RHF iter   3:  -224.84168817185133   -3.63679e-02   1.74019e-04 DIIS
   @DF-RHF iter   4:  -224.84337342393607   -1.68525e-03   7.98972e-05 DIIS
   @DF-RHF iter   5:  -224.84367500464904   -3.01581e-04   1.26452e-05 DIIS
   @DF-RHF iter   6:  -224.84369234168162   -1.73370e-05   5.61871e-06 DIIS
   @DF-RHF iter   7:  -224.84369542975094   -3.08807e-06   2.19503e-06 DIIS
   @DF-RHF iter   8:  -224.84369616166913   -7.31918e-07   7.77587e-07 DIIS
   @DF-RHF iter   9:  -224.84369627246386   -1.10795e-07   1.87961e-07 DIIS
   @DF-RHF iter  10:  -224.84369627799930   -5.53544e-09   7.33125e-08 DIIS
   @DF-RHF iter  11:  -224.84369627882535   -8.26049e-10   3.26918e-08 DIIS
   @DF-RHF iter  12:  -224.84369627897746   -1.52113e-10   9.70884e-09 DIIS
   @DF-RHF iter  13:  -224.84369627899051   -1.30456e-11   3.58840e-09 DIIS
   @DF-RHF iter  14:  -224.84369627899230   -1.79057e-12   1.58275e-09 DIIS
   @DF-RHF iter  15:  -224.84369627899272   -4.26326e-13   5.27556e-10 DIIS
   @DF-RHF iter  16:  -224.84369627899312   -3.97904e-13   2.34517e-10 DIIS
   @DF-RHF iter  17:  -224.84369627899306    5.68434e-14   4.71143e-11 DIIS
  Energy and wave function converged.


  ==> Post-Iterations <==

    Orbital Energies [Eh]
    ---------------------

    Doubly Occupied:

       1A    -15.637071     2A    -15.551216     3A    -11.300916
       4A    -11.263160     5A    -11.245653     6A     -1.352867
       7A     -1.169098     8A     -1.012098     9A     -0.824390
      10A     -0.803731    11A     -0.760666    12A     -0.610096
      13A     -0.603958    14A     -0.601922    15A     -0.570942
      16A     -0.435483    17A     -0.400464    18A     -0.320685

    Virtual:

      19A      0.023499    20A      0.025388    21A      0.041186
      22A      0.041581    23A      0.044381    24A      0.049997
      25A      0.061864    26A      0.068685    27A      0.077497
      28A      0.087224    29A      0.089096    30A      0.098517
      31A      0.101397    32A      0.120831    33A      0.125542
      34A      0.125577    35A      0.125918    36A      0.127642
      37A      0.128244    38A      0.133472    39A      0.133772
      40A      0.135248    41A      0.138976    42A      0.140942
      43A      0.156500    44A      0.157476    45A      0.158700
      46A      0.171988    47A      0.178189    48A      0.187224
      49A      0.193182    50A      0.208750    51A      0.210346
      52A      0.211559    53A      0.213507    54A      0.220268
      55A      0.221315    56A      0.223509    57A      0.232359
      58A      0.234014    59A      0.241408    60A      0.261605
      61A      0.267803    62A      0.273160    63A      0.277911
      64A      0.300416    65A      0.301746    66A      0.307402
      67A      0.314442    68A      0.320196    69A      0.338197
      70A      0.361257    71A      0.361489    72A      0.370745
      73A      0.376327    74A      0.379800    75A      0.388292
      76A      0.394436    77A      0.397097    78A      0.417031
      79A      0.428214    80A      0.429000    81A      0.436037
      82A      0.441337    83A      0.450009    84A      0.452059
      85A      0.453127    86A      0.466350    87A      0.469081
      88A      0.481229    89A      0.482043    90A      0.486283
      91A      0.488151    92A      0.518317    93A      0.521544
      94A      0.537047    95A      0.539220    96A      0.544058
      97A      0.551710    98A      0.556382    99A      0.556864
     100A      0.568280   101A      0.576474   102A      0.580381
     103A      0.588568   104A      0.594249   105A      0.598939
     106A      0.607326   107A      0.613144   108A      0.616080
     109A      0.619332   110A      0.636538   111A      0.640675
     112A      0.652504   113A      0.669282   114A      0.671337
     115A      0.678185   116A      0.678632   117A      0.683874
     118A      0.684705   119A      0.712192   120A      0.714698
     121A      0.725758   122A      0.737006   123A      0.741238
     124A      0.757151   125A      0.762698   126A      0.767400
     127A      0.790929   128A      0.793606   129A      0.799215
     130A      0.809747   131A      0.811461   132A      0.813593
     133A      0.824143   134A      0.837525   135A      0.860397
     136A      0.860539   137A      0.871425   138A      0.885765
     139A      0.887558   140A      0.889823   141A      0.910739
     142A      0.920627   143A      0.927877   144A      0.954351
     145A      0.969720   146A      0.976964   147A      0.992840
     148A      0.998360   149A      1.010706   150A      1.016441
     151A      1.017404   152A      1.030676   153A      1.059928
     154A      1.077353   155A      1.079625   156A      1.084552
     157A      1.104666   158A      1.116971   159A      1.126983
     160A      1.133476   161A      1.140497   162A      1.149565
     163A      1.167170   164A      1.171860   165A      1.175104
     166A      1.198599   167A      1.211606   168A      1.217445
     169A      1.260721   170A      1.279087   171A      1.291691
     172A      1.298010   173A      1.302539   174A      1.313585
     175A      1.319137   176A      1.348606   177A      1.385028
     178A      1.385123   179A      1.398145   180A      1.451143
     181A      1.495960   182A      1.503288   183A      1.516897
     184A      1.518410   185A      1.542366   186A      1.574127
     187A      1.574285   188A      1.596381   189A      1.652159
     190A      1.661957   191A      1.671505   192A      1.705286
     193A      1.724477   194A      1.782643   195A      1.799067
     196A      1.807063   197A      1.864950   198A      1.881477
     199A      1.924391   200A      1.964987   201A      2.022005
     202A      2.025429   203A      2.040643   204A      2.072981
     205A      2.102152   206A      2.107054   207A      2.120589
     208A      2.126759   209A      2.132398   210A      2.135965
     211A      2.150501   212A      2.168670   213A      2.178815
     214A      2.185986   215A      2.230774   216A      2.253771
     217A      2.267082   218A      2.275963   219A      2.300924
     220A      2.309667   221A      2.328294   222A      2.332072
     223A      2.378040   224A      2.406727   225A      2.414366
     226A      2.417758   227A      2.456766   228A      2.471950
     229A      2.495003   230A      2.496919   231A      2.514025
     232A      2.527056   233A      2.545345   234A      2.546589
     235A      2.577921   236A      2.585743   237A      2.600946
     238A      2.633765   239A      2.697308   240A      2.734093
     241A      2.747025   242A      2.767089   243A      2.791652
     244A      2.794149   245A      2.803444   246A      2.829914
     247A      2.837641   248A      2.867213   249A      2.897072
     250A      2.934347   251A      2.950542   252A      2.952738
     253A      2.980862   254A      3.044793   255A      3.051201
     256A      3.069910   257A      3.077406   258A      3.133215
     259A      3.160914   260A      3.184165   261A      3.199163
     262A      3.208795   263A      3.214595   264A      3.334816
     265A      3.342053   266A      3.354572   267A      3.356011
     268A      3.364066   269A      3.459939   270A      3.495748
     271A      3.518552   272A      3.570848   273A      3.610187
     274A      3.708500   275A      3.727961   276A      3.768294
     277A      3.779630   278A      3.799466   279A      3.859151
     280A      3.872016   281A      4.005154   282A      4.109022
     283A      4.214069   284A      4.637972   285A      4.640062
     286A      4.697202   287A      4.773095   288A      4.881354
     289A      5.022676   290A      5.255990   291A      5.374456
     292A      5.496111   293A      5.611586   294A      5.717553
     295A      5.885239   296A      6.090975   297A      6.199475
     298A     18.256632   299A     18.591553   300A     19.301590
     301A     25.313250   302A     25.454564

    Final Occupation by Irrep:
              A
    DOCC [    18 ]

  @DF-RHF Final Energy:  -224.84369627899306

   => Energetics <=

    Nuclear Repulsion Energy =            164.0866959941843959
    One-Electron Energy =                -628.9319562990971235
    Two-Electron Energy =                 240.0015640259196346
    Total Energy =                       -224.8436962789930647

Computation Completed


Properties will be evaluated at   0.000000,   0.000000,   0.000000 [a0]

Properties computed using the SCF density matrix

  Nuclear Dipole Moment: [e a0]
     X:  -102.4221      Y:  -129.0981      Z:   128.4908

  Electronic Dipole Moment: [e a0]
     X:   103.2259      Y:   129.2613      Z:  -129.8232

  Dipole Moment: [e a0]
     X:     0.8038      Y:     0.1633      Z:    -1.3324     Total:     1.5646

  Dipole Moment: [D]
     X:     2.0431      Y:     0.4150      Z:    -3.3867     Total:     3.9769


*** tstop() called on ds1 at Tue Sep 14 16:36:55 2021
Module time:
	user time   =      15.98 seconds =       0.27 minutes
	system time =       0.40 seconds =       0.01 minutes
	total time  =          4 seconds =       0.07 minutes
Total time:
	user time   =      38.27 seconds =       0.64 minutes
	system time =       0.95 seconds =       0.02 minutes
	total time  =          8 seconds =       0.13 minutes

  //>>>>>>>>>>>>>>>>>>>>>>>>>>>>>>>>>>>//
  //            Monomer B HF           //
  //<<<<<<<<<<<<<<<<<<<<<<<<<<<<<<<<<<<//


*** tstart() called on ds1
*** at Tue Sep 14 16:36:55 2021

   => Loading Basis Set <=

    Name: AUG-CC-PVDZ
    Role: ORBITAL
    Keyword: BASIS
    atoms 1-2, 10-11 entry N          line   218 file /theoryfs2/ds/csargent/miniconda3/envs/cle/share/psi4/basis/aug-cc-pvdz.gbs
    atoms 3-6, 12-15 entry H          line    40 file /theoryfs2/ds/csargent/miniconda3/envs/cle/share/psi4/basis/aug-cc-pvdz.gbs
    atoms 7-9, 16-18 entry C          line   182 file /theoryfs2/ds/csargent/miniconda3/envs/cle/share/psi4/basis/aug-cc-pvdz.gbs


         ---------------------------------------------------------
                                   SCF
               by Justin Turney, Rob Parrish, Andy Simmonett
                          and Daniel G. A. Smith
                              RHF Reference
                        6 Threads,   6675 MiB Core
         ---------------------------------------------------------

  ==> Geometry <==

    Molecular point group: c1
    Full point group: C1

    Geometry (in Bohr), charge = 0, multiplicity = 1:

       Center              X                  Y                   Z               Mass
    ------------   -----------------  -----------------  -----------------  -----------------
      Gh(N)          -4.293096210000    -3.068374310000     5.305162310000    14.003074004430
      Gh(N)          -2.158473710000    -2.926272960000     1.720374480000    14.003074004430
      Gh(H)          -0.025455870000    -6.359035750000     2.220464520000     1.007825032230
      Gh(H)          -2.685669680000    -6.532602410000     6.614459540000     1.007825032230
      Gh(H)          -4.743884230000    -0.006090060000     2.756159680000     1.007825032230
      Gh(H)          -1.410455400000    -2.247231470000     0.000000000000     1.007825032230
      Gh(C)          -1.437379910000    -5.075048480000     2.940658910000    12.000000000000
      Gh(C)          -2.769007820000    -5.146099160000     5.135228800000    12.000000000000
      Gh(C)          -3.859550360000    -1.777281980000     3.210934110000    12.000000000000
         N          -28.022453930000    14.121829910000    11.490742040000    14.003074004430
         N          -30.157076430000    13.979728550000    15.075529880000    14.003074004430
         H          -32.290094280000    17.412491340000    14.575439840000     1.007825032230
         H          -29.629880460000    17.586058000000    10.181444820000     1.007825032230
         H          -27.571665920000    11.059545650000    14.039744680000     1.007825032230
         H          -30.905094740000    13.300687060000    16.795904350000     1.007825032230
         C          -30.878170230000    16.128504080000    13.855245440000    12.000000000000
         C          -29.546542320000    16.199554760000    11.660675550000    12.000000000000
         C          -28.455999790000    12.830737570000    13.584970240000    12.000000000000

  Running in c1 symmetry.

  Rotational constants: A =      0.02553  B =      0.00070  C =      0.00068 [cm^-1]
  Rotational constants: A =    765.38831  B =     20.96214  C =     20.42819 [MHz]
  Nuclear repulsion =  164.086695818286159

  Charge       = 0
  Multiplicity = 1
  Electrons    = 36
  Nalpha       = 18
  Nbeta        = 18

  ==> Algorithm <==

  SCF Algorithm Type is DF.
  DIIS enabled.
  MOM disabled.
  Fractional occupation disabled.
  Guess Type is SAD.
  Energy threshold   = 1.00e-10
  Density threshold  = 1.00e-10
  Integral threshold = 1.00e-12

  ==> Primary Basis <==

  Basis Set: AUG-CC-PVDZ
    Blend: AUG-CC-PVDZ
    Number of shells: 130
    Number of basis functions: 302
    Number of Cartesian functions: 322
    Spherical Harmonics?: true
    Max angular momentum: 2

   => Loading Basis Set <=

    Name: (AUG-CC-PVDZ AUX)
    Role: JKFIT
    Keyword: DF_BASIS_SCF
    atoms 1-2, 10-11 entry N          line   212 file /theoryfs2/ds/csargent/miniconda3/envs/cle/share/psi4/basis/aug-cc-pvdz-jkfit.gbs
    atoms 3-6, 12-15 entry H          line    70 file /theoryfs2/ds/csargent/miniconda3/envs/cle/share/psi4/basis/aug-cc-pvdz-jkfit.gbs
    atoms 7-9, 16-18 entry C          line   154 file /theoryfs2/ds/csargent/miniconda3/envs/cle/share/psi4/basis/aug-cc-pvdz-jkfit.gbs

  ==> Integral Setup <==

  ==> DiskDFJK: Density-Fitted J/K Matrices <==

    J tasked:                  Yes
    K tasked:                  Yes
    wK tasked:                  No
    OpenMP threads:              6
    Integrals threads:           6
    Memory [MiB]:             5006
    Algorithm:                Core
    Integral Cache:           LOAD
    Schwarz Cutoff:          1E-12
    Fitting Condition:       1E-10

   => Auxiliary Basis Set <=

  Basis Set: (AUG-CC-PVDZ AUX)
    Blend: AUG-CC-PVDZ-JKFIT
    Number of shells: 376
    Number of basis functions: 1116
    Number of Cartesian functions: 1290
    Spherical Harmonics?: true
    Max angular momentum: 3

  Minimum eigenvalue in the overlap matrix is 2.1836748540E-05.
  Reciprocal condition number of the overlap matrix is 1.8394248864E-06.
    Using symmetric orthogonalization.

  ==> Pre-Iterations <==

  SCF Guess: Superposition of Atomic Densities via on-the-fly atomic UHF (no occupation information).

   -------------------------
    Irrep   Nso     Nmo
   -------------------------
     A        302     302
   -------------------------
    Total     302     302
   -------------------------

  ==> Iterations <==

                           Total Energy        Delta E     RMS |[F,P]|

   @DF-RHF iter SAD:  -224.55857167966937   -2.24559e+02   0.00000e+00
   @DF-RHF iter   1:  -224.69806464876240   -1.39493e-01   1.63067e-03 DIIS
   @DF-RHF iter   2:  -224.80532026724879   -1.07256e-01   9.27384e-04 DIIS
   @DF-RHF iter   3:  -224.84168817124916   -3.63679e-02   1.74019e-04 DIIS
   @DF-RHF iter   4:  -224.84337342335164   -1.68525e-03   7.98972e-05 DIIS
   @DF-RHF iter   5:  -224.84367500406859   -3.01581e-04   1.26452e-05 DIIS
   @DF-RHF iter   6:  -224.84369234110122   -1.73370e-05   5.61871e-06 DIIS
   @DF-RHF iter   7:  -224.84369542917051   -3.08807e-06   2.19503e-06 DIIS
   @DF-RHF iter   8:  -224.84369616108887   -7.31918e-07   7.77587e-07 DIIS
   @DF-RHF iter   9:  -224.84369627188275   -1.10794e-07   1.87961e-07 DIIS
   @DF-RHF iter  10:  -224.84369627741881   -5.53607e-09   7.33125e-08 DIIS
   @DF-RHF iter  11:  -224.84369627824483   -8.26020e-10   3.26918e-08 DIIS
   @DF-RHF iter  12:  -224.84369627839709   -1.52255e-10   9.70884e-09 DIIS
   @DF-RHF iter  13:  -224.84369627841039   -1.33014e-11   3.58840e-09 DIIS
   @DF-RHF iter  14:  -224.84369627841150   -1.10845e-12   1.58275e-09 DIIS
   @DF-RHF iter  15:  -224.84369627841204   -5.40012e-13   5.27556e-10 DIIS
   @DF-RHF iter  16:  -224.84369627841204    0.00000e+00   2.34517e-10 DIIS
   @DF-RHF iter  17:  -224.84369627841195    8.52651e-14   4.71137e-11 DIIS
  Energy and wave function converged.


  ==> Post-Iterations <==

    Orbital Energies [Eh]
    ---------------------

    Doubly Occupied:

       1A    -15.637071     2A    -15.551216     3A    -11.300916
       4A    -11.263160     5A    -11.245653     6A     -1.352867
       7A     -1.169098     8A     -1.012098     9A     -0.824390
      10A     -0.803731    11A     -0.760666    12A     -0.610096
      13A     -0.603958    14A     -0.601922    15A     -0.570942
      16A     -0.435483    17A     -0.400464    18A     -0.320685

    Virtual:

      19A      0.023499    20A      0.025388    21A      0.041186
      22A      0.041581    23A      0.044381    24A      0.049997
      25A      0.061864    26A      0.068685    27A      0.077497
      28A      0.087224    29A      0.089096    30A      0.098517
      31A      0.101397    32A      0.120831    33A      0.125542
      34A      0.125577    35A      0.125918    36A      0.127642
      37A      0.128244    38A      0.133472    39A      0.133772
      40A      0.135248    41A      0.138976    42A      0.140942
      43A      0.156500    44A      0.157476    45A      0.158700
      46A      0.171988    47A      0.178189    48A      0.187224
      49A      0.193182    50A      0.208750    51A      0.210346
      52A      0.211559    53A      0.213507    54A      0.220268
      55A      0.221315    56A      0.223509    57A      0.232359
      58A      0.234014    59A      0.241408    60A      0.261605
      61A      0.267803    62A      0.273160    63A      0.277911
      64A      0.300416    65A      0.301746    66A      0.307402
      67A      0.314442    68A      0.320196    69A      0.338197
      70A      0.361257    71A      0.361489    72A      0.370745
      73A      0.376327    74A      0.379800    75A      0.388292
      76A      0.394436    77A      0.397097    78A      0.417031
      79A      0.428214    80A      0.429000    81A      0.436037
      82A      0.441337    83A      0.450009    84A      0.452059
      85A      0.453127    86A      0.466350    87A      0.469081
      88A      0.481229    89A      0.482043    90A      0.486283
      91A      0.488151    92A      0.518317    93A      0.521544
      94A      0.537047    95A      0.539220    96A      0.544058
      97A      0.551710    98A      0.556382    99A      0.556864
     100A      0.568280   101A      0.576474   102A      0.580381
     103A      0.588568   104A      0.594249   105A      0.598939
     106A      0.607326   107A      0.613144   108A      0.616080
     109A      0.619332   110A      0.636538   111A      0.640675
     112A      0.652504   113A      0.669282   114A      0.671337
     115A      0.678185   116A      0.678632   117A      0.683874
     118A      0.684705   119A      0.712192   120A      0.714698
     121A      0.725758   122A      0.737006   123A      0.741238
     124A      0.757151   125A      0.762698   126A      0.767400
     127A      0.790929   128A      0.793606   129A      0.799215
     130A      0.809747   131A      0.811461   132A      0.813593
     133A      0.824143   134A      0.837525   135A      0.860397
     136A      0.860539   137A      0.871425   138A      0.885765
     139A      0.887558   140A      0.889823   141A      0.910739
     142A      0.920627   143A      0.927877   144A      0.954351
     145A      0.969720   146A      0.976964   147A      0.992840
     148A      0.998360   149A      1.010706   150A      1.016441
     151A      1.017404   152A      1.030676   153A      1.059928
     154A      1.077353   155A      1.079625   156A      1.084552
     157A      1.104666   158A      1.116971   159A      1.126983
     160A      1.133476   161A      1.140497   162A      1.149565
     163A      1.167170   164A      1.171860   165A      1.175104
     166A      1.198599   167A      1.211606   168A      1.217445
     169A      1.260721   170A      1.279087   171A      1.291691
     172A      1.298010   173A      1.302539   174A      1.313585
     175A      1.319137   176A      1.348606   177A      1.385028
     178A      1.385123   179A      1.398145   180A      1.451143
     181A      1.495960   182A      1.503288   183A      1.516897
     184A      1.518410   185A      1.542366   186A      1.574127
     187A      1.574285   188A      1.596381   189A      1.652159
     190A      1.661957   191A      1.671505   192A      1.705286
     193A      1.724477   194A      1.782643   195A      1.799067
     196A      1.807063   197A      1.864950   198A      1.881477
     199A      1.924391   200A      1.964987   201A      2.022005
     202A      2.025429   203A      2.040643   204A      2.072981
     205A      2.102152   206A      2.107054   207A      2.120589
     208A      2.126759   209A      2.132398   210A      2.135965
     211A      2.150501   212A      2.168670   213A      2.178815
     214A      2.185986   215A      2.230774   216A      2.253771
     217A      2.267082   218A      2.275963   219A      2.300924
     220A      2.309667   221A      2.328294   222A      2.332072
     223A      2.378040   224A      2.406727   225A      2.414366
     226A      2.417758   227A      2.456766   228A      2.471950
     229A      2.495003   230A      2.496919   231A      2.514025
     232A      2.527056   233A      2.545345   234A      2.546589
     235A      2.577921   236A      2.585743   237A      2.600946
     238A      2.633765   239A      2.697308   240A      2.734093
     241A      2.747025   242A      2.767089   243A      2.791652
     244A      2.794149   245A      2.803444   246A      2.829914
     247A      2.837641   248A      2.867213   249A      2.897072
     250A      2.934347   251A      2.950542   252A      2.952738
     253A      2.980862   254A      3.044793   255A      3.051201
     256A      3.069910   257A      3.077406   258A      3.133215
     259A      3.160914   260A      3.184165   261A      3.199163
     262A      3.208795   263A      3.214595   264A      3.334816
     265A      3.342053   266A      3.354572   267A      3.356011
     268A      3.364066   269A      3.459939   270A      3.495748
     271A      3.518552   272A      3.570848   273A      3.610187
     274A      3.708500   275A      3.727961   276A      3.768294
     277A      3.779630   278A      3.799466   279A      3.859151
     280A      3.872016   281A      4.005154   282A      4.109022
     283A      4.214069   284A      4.637972   285A      4.640062
     286A      4.697202   287A      4.773095   288A      4.881354
     289A      5.022676   290A      5.255990   291A      5.374456
     292A      5.496111   293A      5.611586   294A      5.717553
     295A      5.885239   296A      6.090975   297A      6.199475
     298A     18.256632   299A     18.591553   300A     19.301590
     301A     25.313250   302A     25.454564

    Final Occupation by Irrep:
              A
    DOCC [    18 ]

  @DF-RHF Final Energy:  -224.84369627841195

   => Energetics <=

    Nuclear Repulsion Energy =            164.0866958182861595
    One-Electron Energy =                -628.9319559484137017
    Two-Electron Energy =                 240.0015638517155878
    Total Energy =                       -224.8436962784119544

Computation Completed


Properties will be evaluated at   0.000000,   0.000000,   0.000000 [a0]

Properties computed using the SCF density matrix

  Nuclear Dipole Moment: [e a0]
     X: -1060.9377      Y:   527.0225      Z:   476.1618

  Electronic Dipole Moment: [e a0]
     X:  1060.1339      Y:  -527.1857      Z:  -474.8294

  Dipole Moment: [e a0]
     X:    -0.8038      Y:    -0.1633      Z:     1.3324     Total:     1.5646

  Dipole Moment: [D]
     X:    -2.0431      Y:    -0.4150      Z:     3.3867     Total:     3.9769


*** tstop() called on ds1 at Tue Sep 14 16:36:59 2021
Module time:
	user time   =      15.86 seconds =       0.26 minutes
	system time =       0.33 seconds =       0.01 minutes
	total time  =          4 seconds =       0.07 minutes
Total time:
	user time   =      54.23 seconds =       0.90 minutes
	system time =       1.29 seconds =       0.02 minutes
	total time  =         12 seconds =       0.20 minutes
  Constructing Basis Sets for SAPT...

   => Loading Basis Set <=

    Name: (AUG-CC-PVDZ AUX)
    Role: RIFIT
    Keyword: DF_BASIS_SAPT
    atoms 1-2, 10-11 entry N          line   158 file /theoryfs2/ds/csargent/miniconda3/envs/cle/share/psi4/basis/aug-cc-pvdz-ri.gbs
    atoms 3-6, 12-15 entry H          line    30 file /theoryfs2/ds/csargent/miniconda3/envs/cle/share/psi4/basis/aug-cc-pvdz-ri.gbs
    atoms 7-9, 16-18 entry C          line   112 file /theoryfs2/ds/csargent/miniconda3/envs/cle/share/psi4/basis/aug-cc-pvdz-ri.gbs


  //>>>>>>>>>>>>>>>>>>>>>>>>>>>>>>>>>>>//
  //               SAPT0               //
  //<<<<<<<<<<<<<<<<<<<<<<<<<<<<<<<<<<<//


*** tstart() called on ds1
*** at Tue Sep 14 16:36:59 2021

        SAPT0
    Ed Hohenstein
     6 June 2009

      Orbital Information
  --------------------------
    NSO        =       302
    NMO        =       302
    NRI        =       904
    NOCC A     =        18
    NOCC B     =        18
    FOCC A     =         5
    FOCC B     =         5
    NVIR A     =       284
    NVIR B     =       284

    Elst10,r            =    -0.000006319825 [Eh]
    Exch10              =    -0.000000000000 [Eh]
    Exch10 (S^2)        =    -0.000000000000 [Eh]

    Iter     Energy [mEh]          dE [mEh]         Residual      Time [s]
       1      -0.00010676       0.000106758       0.099036010             0
       2      -0.00010289      -0.000003865       0.028068177             0
       3      -0.00011573       0.000012835       0.007191053             0
       4      -0.00011582       0.000000094       0.004378341             0
       5      -0.00011551      -0.000000311       0.001926935             0
       6      -0.00011546      -0.000000055       0.000566127             0
       7      -0.00011550       0.000000040       0.000161724             1
       8      -0.00011550       0.000000009       0.000056036             1
       9      -0.00011550      -0.000000002       0.000023334             1
      10      -0.00011550      -0.000000002       0.000006555             1
      11      -0.00011550       0.000000001       0.000002494             1
      12      -0.00011550       0.000000000       0.000000617             1

    CHF Iterations converged


    Iter     Energy [mEh]          dE [mEh]         Residual      Time [s]
       1      -0.00010676       0.000106758       0.099036011             0
       2      -0.00010289      -0.000003865       0.028068176             0
       3      -0.00011573       0.000012835       0.007191054             1
       4      -0.00011582       0.000000094       0.004378341             1
       5      -0.00011551      -0.000000311       0.001926935             1
       6      -0.00011546      -0.000000055       0.000566127             1
       7      -0.00011550       0.000000040       0.000161724             1
       8      -0.00011550       0.000000009       0.000056036             1
       9      -0.00011550      -0.000000002       0.000023334             1
      10      -0.00011550      -0.000000002       0.000006555             1
      11      -0.00011550       0.000000001       0.000002494             2
      12      -0.00011550       0.000000000       0.000000617             2

    CHF Iterations converged

    Ind20,r (A<-B)      =    -0.000000115502 [Eh]
    Ind20,r (B<-A)      =    -0.000000115502 [Eh]
    Ind20,r             =    -0.000000231004 [Eh]
    Exch-Ind20,r (A<-B) =     0.000000000000 [Eh]
    Exch-Ind20,r (B<-A) =     0.000000000000 [Eh]
    Exch-Ind20,r        =     0.000000000000 [Eh]
    Disp20              =    -0.000000968508 [Eh]
    Disp20 (SS)         =    -0.000000484254 [Eh]
    Disp20 (OS)         =    -0.000000484254 [Eh]
    Exch-Disp20         =     0.000000000000 [Eh]
    Exch-Disp20 (SS)    =     0.000000000000 [Eh]
    Exch-Disp20 (OS)    =     0.000000000000 [Eh]

    SAPT Results
  --------------------------------------------------------------------------------------------------------
    Electrostatics                 -0.00631983 [mEh]      -0.00396575 [kcal/mol]      -0.01659270 [kJ/mol]
      Elst10,r                     -0.00631983 [mEh]      -0.00396575 [kcal/mol]      -0.01659270 [kJ/mol]

    Exchange                       -0.00000000 [mEh]      -0.00000000 [kcal/mol]      -0.00000000 [kJ/mol]
      Exch10                       -0.00000000 [mEh]      -0.00000000 [kcal/mol]      -0.00000000 [kJ/mol]
      Exch10(S^2)                  -0.00000000 [mEh]      -0.00000000 [kcal/mol]      -0.00000000 [kJ/mol]

    Induction                      -0.00022728 [mEh]      -0.00014262 [kcal/mol]      -0.00059672 [kJ/mol]
      Ind20,r                      -0.00023100 [mEh]      -0.00014496 [kcal/mol]      -0.00060650 [kJ/mol]
      Exch-Ind20,r                  0.00000000 [mEh]       0.00000000 [kcal/mol]       0.00000000 [kJ/mol]
      delta HF,r (2)                0.00000372 [mEh]       0.00000234 [kcal/mol]       0.00000978 [kJ/mol]

    Dispersion                     -0.00096851 [mEh]      -0.00060775 [kcal/mol]      -0.00254282 [kJ/mol]
      Disp20                       -0.00096851 [mEh]      -0.00060775 [kcal/mol]      -0.00254282 [kJ/mol]
      Exch-Disp20                   0.00000000 [mEh]       0.00000000 [kcal/mol]       0.00000000 [kJ/mol]
      Disp20 (SS)                  -0.00048425 [mEh]      -0.00030387 [kcal/mol]      -0.00127141 [kJ/mol]
      Disp20 (OS)                  -0.00048425 [mEh]      -0.00030387 [kcal/mol]      -0.00127141 [kJ/mol]
      Exch-Disp20 (SS)              0.00000000 [mEh]       0.00000000 [kcal/mol]       0.00000000 [kJ/mol]
      Exch-Disp20 (OS)              0.00000000 [mEh]       0.00000000 [kcal/mol]       0.00000000 [kJ/mol]

  Total HF                         -0.00654710 [mEh]      -0.00410837 [kcal/mol]      -0.01718942 [kJ/mol]
  Total SAPT0                      -0.00751561 [mEh]      -0.00471612 [kcal/mol]      -0.01973224 [kJ/mol]

  Special recipe for scaled SAPT0 (see Manual):
    Electrostatics sSAPT0          -0.00631983 [mEh]      -0.00396575 [kcal/mol]      -0.01659270 [kJ/mol]
    Exchange sSAPT0                -0.00000000 [mEh]      -0.00000000 [kcal/mol]      -0.00000000 [kJ/mol]
    Induction sSAPT0               -0.00022728 [mEh]      -0.00014262 [kcal/mol]      -0.00059672 [kJ/mol]
    Dispersion sSAPT0              -0.00096851 [mEh]      -0.00060775 [kcal/mol]      -0.00254282 [kJ/mol]
  Total sSAPT0                     -0.00751561 [mEh]      -0.00471612 [kcal/mol]      -0.01973224 [kJ/mol]
  --------------------------------------------------------------------------------------------------------

*** tstop() called on ds1 at Tue Sep 14 16:37:08 2021
Module time:
	user time   =      45.30 seconds =       0.76 minutes
	system time =       3.89 seconds =       0.06 minutes
	total time  =          9 seconds =       0.15 minutes
Total time:
	user time   =     100.51 seconds =       1.68 minutes
	system time =       5.21 seconds =       0.09 minutes
	total time  =         21 seconds =       0.35 minutes


Warning! sapt0 does not have an associated derived wavefunction.The returned wavefunction is the dimer SCF wavefunction.


    Psi4 stopped on: Tuesday, 14 September 2021 04:37PM
    Psi4 wall time for execution: 0:00:21.52

*** Psi4 exiting successfully. Buy a developer a beer!
