
    -----------------------------------------------------------------------
          Psi4: An Open-Source Ab Initio Electronic Structure Package
                               Psi4 1.4rc3

                         Git: Rev {HEAD} 080dba6


    D. G. A. Smith, L. A. Burns, A. C. Simmonett, R. M. Parrish,
    M. C. Schieber, R. Galvelis, P. Kraus, H. Kruse, R. Di Remigio,
    A. Alenaizan, A. M. James, S. Lehtola, J. P. Misiewicz, M. Scheurer,
    R. A. Shaw, J. B. Schriber, Y. Xie, Z. L. Glick, D. A. Sirianni,
    J. S. O'Brien, J. M. Waldrop, A. Kumar, E. G. Hohenstein,
    B. P. Pritchard, B. R. Brooks, H. F. Schaefer III, A. Yu. Sokolov,
    K. Patkowski, A. E. DePrince III, U. Bozkaya, R. A. King,
    F. A. Evangelista, J. M. Turney, T. D. Crawford, C. D. Sherrill,
    J. Chem. Phys. 152(18) 184108 (2020). https://doi.org/10.1063/5.0006002

                            Additional Code Authors
    E. T. Seidl, C. L. Janssen, E. F. Valeev, M. L. Leininger,
    J. F. Gonthier, R. M. Richard, H. R. McAlexander, M. Saitow, X. Wang,
    P. Verma, and M. H. Lechner

             Previous Authors, Complete List of Code Contributors,
                       and Citations for Specific Modules
    https://github.com/psi4/psi4/blob/master/codemeta.json
    https://github.com/psi4/psi4/graphs/contributors
    http://psicode.org/psi4manual/master/introduction.html#citing-psifour

    -----------------------------------------------------------------------


    Psi4 started on: Tuesday, 14 September 2021 05:29PM

    Process ID: 3288
    Host:       ds1
    PSIDATADIR: /theoryfs2/ds/csargent/miniconda3/envs/cle/share/psi4
    Memory:     500.0 MiB
    Threads:    6

  ==> Input File <==

--------------------------------------------------------------------------
# PSI4 file produced by CrystaLattE

# Generated from:               imidazole.xyz
# Psithon input for N-mer:      2mer-0+465
# Number of atoms per monomer:  [9, 9]
# Number of replicas:           1
# COM priority:                 1.561594090260e-05
# Minimum COM separations:      21.171
# Separation priority:          2.746500071572e-05
# Minimum monomer separations:  17.539
# Cutoff priority:              8.286532148063e-07
# Nuclear repulsion energy:     360.5574334386311

memory 7 GB

molecule Dimer_0_465 {
  N           -4.29309621      -3.06837431       5.30516231
  N           -2.15847371      -2.92627296       1.72037448
  H           -0.02545587      -6.35903575       2.22046452
  H           -2.68566968      -6.53260241       6.61445954
  H           -4.74388423      -0.00609006       2.75615968
  H           -1.41045540      -2.24723147       0.00000000
  C           -1.43737991      -5.07504848       2.94065891
  C           -2.76900782      -5.14609916       5.13522880
  C           -3.85955036      -1.77728198       3.21093411
--
  N          -28.02245393      24.27192687      11.49074204
  N          -30.15707643      24.12982552      15.07552988
  H          -32.29009428      27.56258831      14.57543984
  H          -29.62988046      27.73615497      10.18144482
  H          -27.57166592      21.20964262      14.03974468
  H          -30.90509474      23.45078403      16.79590435
  C          -30.87817023      26.27860104      13.85524544
  C          -29.54654232      26.34965172      11.66067555
  C          -28.45599979      22.98083454      13.58497024
units = au
no_com
no_reorient
}

set {
  e_convergence 10
  d_convergence 10
  scf_type df
  mp2_type df
  cc_type df
  freeze_core true
}

energy('sapt0/aug-cc-pvdz')

--------------------------------------------------------------------------

  Memory set to   6.519 GiB by Python driver.

Scratch directory: /scratch/csargent/psi4.31446.79897/

Scratch directory: /scratch/csargent/psi4.31446.79897/

  //>>>>>>>>>>>>>>>>>>>>>>>>>>>>>>>>>>>//
  //              Dimer HF             //
  //<<<<<<<<<<<<<<<<<<<<<<<<<<<<<<<<<<<//


*** tstart() called on ds1
*** at Tue Sep 14 17:29:02 2021

   => Loading Basis Set <=

    Name: AUG-CC-PVDZ
    Role: ORBITAL
    Keyword: BASIS
    atoms 1-2, 10-11 entry N          line   218 file /theoryfs2/ds/csargent/miniconda3/envs/cle/share/psi4/basis/aug-cc-pvdz.gbs
    atoms 3-6, 12-15 entry H          line    40 file /theoryfs2/ds/csargent/miniconda3/envs/cle/share/psi4/basis/aug-cc-pvdz.gbs
    atoms 7-9, 16-18 entry C          line   182 file /theoryfs2/ds/csargent/miniconda3/envs/cle/share/psi4/basis/aug-cc-pvdz.gbs


         ---------------------------------------------------------
                                   SCF
               by Justin Turney, Rob Parrish, Andy Simmonett
                          and Daniel G. A. Smith
                              RHF Reference
                        6 Threads,   6675 MiB Core
         ---------------------------------------------------------

  ==> Geometry <==

    Molecular point group: c1
    Full point group: C1

    Geometry (in Bohr), charge = 0, multiplicity = 1:

       Center              X                  Y                   Z               Mass
    ------------   -----------------  -----------------  -----------------  -----------------
         N           -4.293096210000    -3.068374310000     5.305162310000    14.003074004430
         N           -2.158473710000    -2.926272960000     1.720374480000    14.003074004430
         H           -0.025455870000    -6.359035750000     2.220464520000     1.007825032230
         H           -2.685669680000    -6.532602410000     6.614459540000     1.007825032230
         H           -4.743884230000    -0.006090060000     2.756159680000     1.007825032230
         H           -1.410455400000    -2.247231470000     0.000000000000     1.007825032230
         C           -1.437379910000    -5.075048480000     2.940658910000    12.000000000000
         C           -2.769007820000    -5.146099160000     5.135228800000    12.000000000000
         C           -3.859550360000    -1.777281980000     3.210934110000    12.000000000000
         N          -28.022453930000    24.271926870000    11.490742040000    14.003074004430
         N          -30.157076430000    24.129825520000    15.075529880000    14.003074004430
         H          -32.290094280000    27.562588310000    14.575439840000     1.007825032230
         H          -29.629880460000    27.736154970000    10.181444820000     1.007825032230
         H          -27.571665920000    21.209642620000    14.039744680000     1.007825032230
         H          -30.905094740000    23.450784030000    16.795904350000     1.007825032230
         C          -30.878170230000    26.278601040000    13.855245440000    12.000000000000
         C          -29.546542320000    26.349651720000    11.660675550000    12.000000000000
         C          -28.455999790000    22.980834540000    13.584970240000    12.000000000000

  Running in c1 symmetry.

  Rotational constants: A =      0.02299  B =      0.00053  C =      0.00052 [cm^-1]
  Rotational constants: A =    689.15607  B =     15.96510  C =     15.61692 [MHz]
  Nuclear repulsion =  360.557433518738719

  Charge       = 0
  Multiplicity = 1
  Electrons    = 72
  Nalpha       = 36
  Nbeta        = 36

  ==> Algorithm <==

  SCF Algorithm Type is DF.
  DIIS enabled.
  MOM disabled.
  Fractional occupation disabled.
  Guess Type is SAD.
  Energy threshold   = 1.00e-10
  Density threshold  = 1.00e-10
  Integral threshold = 1.00e-12

  ==> Primary Basis <==

  Basis Set: AUG-CC-PVDZ
    Blend: AUG-CC-PVDZ
    Number of shells: 130
    Number of basis functions: 302
    Number of Cartesian functions: 322
    Spherical Harmonics?: true
    Max angular momentum: 2

   => Loading Basis Set <=

    Name: (AUG-CC-PVDZ AUX)
    Role: JKFIT
    Keyword: DF_BASIS_SCF
    atoms 1-2, 10-11 entry N          line   212 file /theoryfs2/ds/csargent/miniconda3/envs/cle/share/psi4/basis/aug-cc-pvdz-jkfit.gbs
    atoms 3-6, 12-15 entry H          line    70 file /theoryfs2/ds/csargent/miniconda3/envs/cle/share/psi4/basis/aug-cc-pvdz-jkfit.gbs
    atoms 7-9, 16-18 entry C          line   154 file /theoryfs2/ds/csargent/miniconda3/envs/cle/share/psi4/basis/aug-cc-pvdz-jkfit.gbs

  ==> Integral Setup <==

  ==> DiskDFJK: Density-Fitted J/K Matrices <==

    J tasked:                  Yes
    K tasked:                  Yes
    wK tasked:                  No
    OpenMP threads:              6
    Integrals threads:           6
    Memory [MiB]:             5006
    Algorithm:                Core
    Integral Cache:           SAVE
    Schwarz Cutoff:          1E-12
    Fitting Condition:       1E-10

   => Auxiliary Basis Set <=

  Basis Set: (AUG-CC-PVDZ AUX)
    Blend: AUG-CC-PVDZ-JKFIT
    Number of shells: 376
    Number of basis functions: 1116
    Number of Cartesian functions: 1290
    Spherical Harmonics?: true
    Max angular momentum: 3

  Minimum eigenvalue in the overlap matrix is 2.1837061925E-05.
  Reciprocal condition number of the overlap matrix is 1.8394513228E-06.
    Using symmetric orthogonalization.

  ==> Pre-Iterations <==

  SCF Guess: Superposition of Atomic Densities via on-the-fly atomic UHF (no occupation information).

   -------------------------
    Irrep   Nso     Nmo
   -------------------------
     A        302     302
   -------------------------
    Total     302     302
   -------------------------

  ==> Iterations <==

                           Total Energy        Delta E     RMS |[F,P]|

   @DF-RHF iter SAD:  -449.11714339047614   -4.49117e+02   0.00000e+00
   @DF-RHF iter   1:  -449.39620602879268   -2.79063e-01   2.30591e-03 DIIS
   @DF-RHF iter   2:  -449.61071840004035   -2.14512e-01   1.31106e-03 DIIS
   @DF-RHF iter   3:  -449.68340156335870   -7.26832e-02   2.45987e-04 DIIS
   @DF-RHF iter   4:  -449.68677000418603   -3.36844e-03   1.12922e-04 DIIS
   @DF-RHF iter   5:  -449.68737242504403   -6.02421e-04   1.78833e-05 DIIS
   @DF-RHF iter   6:  -449.68740709589969   -3.46709e-05   7.94453e-06 DIIS
   @DF-RHF iter   7:  -449.68741327049310   -6.17459e-06   3.10301e-06 DIIS
   @DF-RHF iter   8:  -449.68741473363241   -1.46314e-06   1.09949e-06 DIIS
   @DF-RHF iter   9:  -449.68741495507390   -2.21441e-07   2.65923e-07 DIIS
   @DF-RHF iter  10:  -449.68741496613330   -1.10594e-08   1.03925e-07 DIIS
   @DF-RHF iter  11:  -449.68741496779029   -1.65699e-09   4.61800e-08 DIIS
   @DF-RHF iter  12:  -449.68741496809457   -3.04283e-10   1.37364e-08 DIIS
   @DF-RHF iter  13:  -449.68741496812066   -2.60911e-11   5.07225e-09 DIIS
   @DF-RHF iter  14:  -449.68741496812396   -3.29692e-12   2.23585e-09 DIIS
   @DF-RHF iter  15:  -449.68741496812436   -3.97904e-13   7.45868e-10 DIIS
   @DF-RHF iter  16:  -449.68741496812532   -9.66338e-13   3.31566e-10 DIIS
   @DF-RHF iter  17:  -449.68741496812441    9.09495e-13   6.65300e-11 DIIS
  Energy and wave function converged.


  ==> Post-Iterations <==

    Orbital Energies [Eh]
    ---------------------

    Doubly Occupied:

       1A    -15.636600     2A    -15.636600     3A    -15.550750
       4A    -15.550750     5A    -11.300441     6A    -11.300441
       7A    -11.262721     8A    -11.262721     9A    -11.245222
      10A    -11.245222    11A     -1.352404    12A     -1.352404
      13A     -1.168637    14A     -1.168637    15A     -1.011645
      16A     -1.011645    17A     -0.823925    18A     -0.823925
      19A     -0.803282    20A     -0.803282    21A     -0.760200
      22A     -0.760200    23A     -0.609639    24A     -0.609639
      25A     -0.603494    26A     -0.603494    27A     -0.601473
      28A     -0.601473    29A     -0.570494    30A     -0.570494
      31A     -0.435025    32A     -0.435025    33A     -0.400009
      34A     -0.400009    35A     -0.320236    36A     -0.320236

    Virtual:

      37A      0.025913    38A      0.025913    39A      0.042084
      40A      0.042084    41A      0.050418    42A      0.050419
      43A      0.062320    44A      0.062321    45A      0.089592
      46A      0.089592    47A      0.101901    48A      0.101901
      49A      0.121321    50A      0.121321    51A      0.125971
      52A      0.125971    53A      0.133919    54A      0.133919
      55A      0.134156    56A      0.134156    57A      0.141372
      58A      0.141372    59A      0.156883    60A      0.156883
      61A      0.159329    62A      0.159331    63A      0.172307
      64A      0.172307    65A      0.178666    66A      0.178666
      67A      0.187778    68A      0.187780    69A      0.212030
      70A      0.212030    71A      0.220722    72A      0.220723
      73A      0.232801    74A      0.232801    75A      0.241857
      76A      0.241857    77A      0.262066    78A      0.262066
      79A      0.268234    80A      0.268234    81A      0.278363
      82A      0.278363    83A      0.302221    84A      0.302221
      85A      0.314950    86A      0.314950    87A      0.338606
      88A      0.338606    89A      0.361919    90A      0.361919
      91A      0.371211    92A      0.371211    93A      0.380264
      94A      0.380264    95A      0.388767    96A      0.388767
      97A      0.397551    98A      0.397552    99A      0.417501
     100A      0.417504   101A      0.429443   102A      0.429443
     103A      0.452542   104A      0.452542   105A      0.466826
     106A      0.466826   107A      0.481711   108A      0.481711
     109A      0.486708   110A      0.486708   111A      0.488596
     112A      0.488596   113A      0.552182   114A      0.552182
     115A      0.556837   116A      0.556838   117A      0.568744
     118A      0.568744   119A      0.576962   120A      0.576962
     121A      0.594710   122A      0.594710   123A      0.599395
     124A      0.599396   125A      0.616521   126A      0.616521
     127A      0.636970   128A      0.636970   129A      0.652961
     130A      0.652961   131A      0.669730   132A      0.669730
     133A      0.671785   134A      0.671785   135A      0.678665
     136A      0.678665   137A      0.684300   138A      0.684300
     139A      0.715150   140A      0.715150   141A      0.726223
     142A      0.726223   143A      0.741694   144A      0.741694
     145A      0.763154   146A      0.763154   147A      0.767860
     148A      0.767861   149A      0.791380   150A      0.791380
     151A      0.794097   152A      0.794097   153A      0.810210
     154A      0.810210   155A      0.860851   156A      0.860851
     157A      0.871874   158A      0.871874   159A      0.886215
     160A      0.886215   161A      0.890234   162A      0.890234
     163A      0.954808   164A      0.954808   165A      0.977436
     166A      0.977436   167A      0.998822   168A      0.998822
     169A      1.011158   170A      1.011158   171A      1.017848
     172A      1.017848   173A      1.031147   174A      1.031147
     175A      1.077816   176A      1.077817   177A      1.085022
     178A      1.085022   179A      1.127428   180A      1.127428
     181A      1.140946   182A      1.140947   183A      1.150024
     184A      1.150024   185A      1.167622   186A      1.167623
     187A      1.217903   188A      1.217903   189A      1.261169
     190A      1.261169   191A      1.302978   192A      1.302978
     193A      1.385507   194A      1.385507   195A      1.398603
     196A      1.398603   197A      1.451605   198A      1.451605
     199A      1.503749   200A      1.503749   201A      1.518867
     202A      1.518867   203A      1.574566   204A      1.574566
     205A      1.574721   206A      1.574721   207A      1.596834
     208A      1.596834   209A      1.652612   210A      1.652612
     211A      1.671936   212A      1.671936   213A      1.705720
     214A      1.705720   215A      1.724973   216A      1.724973
     217A      1.783088   218A      1.783088   219A      1.799507
     220A      1.799508   221A      1.807491   222A      1.807491
     223A      1.865411   224A      1.865412   225A      1.881965
     226A      1.881965   227A      1.924860   228A      1.924860
     229A      1.965447   230A      1.965447   231A      2.022463
     232A      2.022463   233A      2.025887   234A      2.025887
     235A      2.073435   236A      2.073435   237A      2.107506
     238A      2.107506   239A      2.127196   240A      2.127196
     241A      2.136402   242A      2.136402   243A      2.169122
     244A      2.169122   245A      2.179277   246A      2.179277
     247A      2.267542   248A      2.267542   249A      2.276430
     250A      2.276430   251A      2.301406   252A      2.301406
     253A      2.332538   254A      2.332538   255A      2.418195
     256A      2.418195   257A      2.497394   258A      2.497394
     259A      2.514486   260A      2.514486   261A      2.545833
     262A      2.545833   263A      2.586192   264A      2.586192
     265A      2.634217   266A      2.634217   267A      2.734527
     268A      2.734527   269A      2.747487   270A      2.747487
     271A      2.767536   272A      2.767536   273A      2.794606
     274A      2.794606   275A      2.803905   276A      2.803905
     277A      2.838106   278A      2.838106   279A      2.867683
     280A      2.867683   281A      2.953201   282A      2.953201
     283A      2.981325   284A      2.981325   285A      3.051645
     286A      3.051645   287A      3.070361   288A      3.070361
     289A      3.199633   290A      3.199633   291A      3.209252
     292A      3.209253   293A      3.335286   294A      3.335286
     295A      3.355028   296A      3.355028   297A      3.519009
     298A      3.519009   299A      3.768754   300A      3.768754
     301A      4.109470   302A      4.109470

    Final Occupation by Irrep:
              A
    DOCC [    36 ]

  @DF-RHF Final Energy:  -449.68741496812441

   => Energetics <=

    Nuclear Repulsion Energy =            360.5574335187387192
    One-Electron Energy =               -1322.6649093572748370
    Two-Electron Energy =                 512.4200608704118167
    Total Energy =                       -449.6874149681243580

Computation Completed


Properties will be evaluated at   0.000000,   0.000000,   0.000000 [a0]

Properties computed using the SCF density matrix

  Nuclear Dipole Moment: [e a0]
     X: -1163.3598      Y:   763.3279      Z:   604.6526

  Electronic Dipole Moment: [e a0]
     X:  1163.3598      Y:  -763.3279      Z:  -604.6526

  Dipole Moment: [e a0]
     X:    -0.0000      Y:     0.0000      Z:    -0.0000     Total:     0.0000

  Dipole Moment: [D]
     X:    -0.0000      Y:     0.0000      Z:    -0.0000     Total:     0.0000


*** tstop() called on ds1 at Tue Sep 14 17:29:07 2021
Module time:
	user time   =      22.13 seconds =       0.37 minutes
	system time =       0.54 seconds =       0.01 minutes
	total time  =          5 seconds =       0.08 minutes
Total time:
	user time   =      22.13 seconds =       0.37 minutes
	system time =       0.54 seconds =       0.01 minutes
	total time  =          5 seconds =       0.08 minutes

  //>>>>>>>>>>>>>>>>>>>>>>>>>>>>>>>>>>>//
  //            Monomer A HF           //
  //<<<<<<<<<<<<<<<<<<<<<<<<<<<<<<<<<<<//


*** tstart() called on ds1
*** at Tue Sep 14 17:29:07 2021

   => Loading Basis Set <=

    Name: AUG-CC-PVDZ
    Role: ORBITAL
    Keyword: BASIS
    atoms 1-2, 10-11 entry N          line   218 file /theoryfs2/ds/csargent/miniconda3/envs/cle/share/psi4/basis/aug-cc-pvdz.gbs
    atoms 3-6, 12-15 entry H          line    40 file /theoryfs2/ds/csargent/miniconda3/envs/cle/share/psi4/basis/aug-cc-pvdz.gbs
    atoms 7-9, 16-18 entry C          line   182 file /theoryfs2/ds/csargent/miniconda3/envs/cle/share/psi4/basis/aug-cc-pvdz.gbs


         ---------------------------------------------------------
                                   SCF
               by Justin Turney, Rob Parrish, Andy Simmonett
                          and Daniel G. A. Smith
                              RHF Reference
                        6 Threads,   6675 MiB Core
         ---------------------------------------------------------

  ==> Geometry <==

    Molecular point group: c1
    Full point group: C1

    Geometry (in Bohr), charge = 0, multiplicity = 1:

       Center              X                  Y                   Z               Mass
    ------------   -----------------  -----------------  -----------------  -----------------
         N           -4.293096210000    -3.068374310000     5.305162310000    14.003074004430
         N           -2.158473710000    -2.926272960000     1.720374480000    14.003074004430
         H           -0.025455870000    -6.359035750000     2.220464520000     1.007825032230
         H           -2.685669680000    -6.532602410000     6.614459540000     1.007825032230
         H           -4.743884230000    -0.006090060000     2.756159680000     1.007825032230
         H           -1.410455400000    -2.247231470000     0.000000000000     1.007825032230
         C           -1.437379910000    -5.075048480000     2.940658910000    12.000000000000
         C           -2.769007820000    -5.146099160000     5.135228800000    12.000000000000
         C           -3.859550360000    -1.777281980000     3.210934110000    12.000000000000
      Gh(N)         -28.022453930000    24.271926870000    11.490742040000    14.003074004430
      Gh(N)         -30.157076430000    24.129825520000    15.075529880000    14.003074004430
      Gh(H)         -32.290094280000    27.562588310000    14.575439840000     1.007825032230
      Gh(H)         -29.629880460000    27.736154970000    10.181444820000     1.007825032230
      Gh(H)         -27.571665920000    21.209642620000    14.039744680000     1.007825032230
      Gh(H)         -30.905094740000    23.450784030000    16.795904350000     1.007825032230
      Gh(C)         -30.878170230000    26.278601040000    13.855245440000    12.000000000000
      Gh(C)         -29.546542320000    26.349651720000    11.660675550000    12.000000000000
      Gh(C)         -28.455999790000    22.980834540000    13.584970240000    12.000000000000

  Running in c1 symmetry.

  Rotational constants: A =      0.02299  B =      0.00053  C =      0.00052 [cm^-1]
  Rotational constants: A =    689.15607  B =     15.96510  C =     15.61692 [MHz]
  Nuclear repulsion =  164.086695994184396

  Charge       = 0
  Multiplicity = 1
  Electrons    = 36
  Nalpha       = 18
  Nbeta        = 18

  ==> Algorithm <==

  SCF Algorithm Type is DF.
  DIIS enabled.
  MOM disabled.
  Fractional occupation disabled.
  Guess Type is SAD.
  Energy threshold   = 1.00e-10
  Density threshold  = 1.00e-10
  Integral threshold = 1.00e-12

  ==> Primary Basis <==

  Basis Set: AUG-CC-PVDZ
    Blend: AUG-CC-PVDZ
    Number of shells: 130
    Number of basis functions: 302
    Number of Cartesian functions: 322
    Spherical Harmonics?: true
    Max angular momentum: 2

   => Loading Basis Set <=

    Name: (AUG-CC-PVDZ AUX)
    Role: JKFIT
    Keyword: DF_BASIS_SCF
    atoms 1-2, 10-11 entry N          line   212 file /theoryfs2/ds/csargent/miniconda3/envs/cle/share/psi4/basis/aug-cc-pvdz-jkfit.gbs
    atoms 3-6, 12-15 entry H          line    70 file /theoryfs2/ds/csargent/miniconda3/envs/cle/share/psi4/basis/aug-cc-pvdz-jkfit.gbs
    atoms 7-9, 16-18 entry C          line   154 file /theoryfs2/ds/csargent/miniconda3/envs/cle/share/psi4/basis/aug-cc-pvdz-jkfit.gbs

  ==> Integral Setup <==

  ==> DiskDFJK: Density-Fitted J/K Matrices <==

    J tasked:                  Yes
    K tasked:                  Yes
    wK tasked:                  No
    OpenMP threads:              6
    Integrals threads:           6
    Memory [MiB]:             5006
    Algorithm:                Core
    Integral Cache:           LOAD
    Schwarz Cutoff:          1E-12
    Fitting Condition:       1E-10

   => Auxiliary Basis Set <=

  Basis Set: (AUG-CC-PVDZ AUX)
    Blend: AUG-CC-PVDZ-JKFIT
    Number of shells: 376
    Number of basis functions: 1116
    Number of Cartesian functions: 1290
    Spherical Harmonics?: true
    Max angular momentum: 3

  Minimum eigenvalue in the overlap matrix is 2.1837061925E-05.
  Reciprocal condition number of the overlap matrix is 1.8394513228E-06.
    Using symmetric orthogonalization.

  ==> Pre-Iterations <==

  SCF Guess: Superposition of Atomic Densities via on-the-fly atomic UHF (no occupation information).

   -------------------------
    Irrep   Nso     Nmo
   -------------------------
     A        302     302
   -------------------------
    Total     302     302
   -------------------------

  ==> Iterations <==

                           Total Energy        Delta E     RMS |[F,P]|

   @DF-RHF iter SAD:  -224.55857169609362   -2.24559e+02   0.00000e+00
   @DF-RHF iter   1:  -224.69806464794166   -1.39493e-01   1.63067e-03 DIIS
   @DF-RHF iter   2:  -224.80532026683079   -1.07256e-01   9.27384e-04 DIIS
   @DF-RHF iter   3:  -224.84168817089969   -3.63679e-02   1.74019e-04 DIIS
   @DF-RHF iter   4:  -224.84337342298062   -1.68525e-03   7.98972e-05 DIIS
   @DF-RHF iter   5:  -224.84367500369484   -3.01581e-04   1.26452e-05 DIIS
   @DF-RHF iter   6:  -224.84369234072798   -1.73370e-05   5.61871e-06 DIIS
   @DF-RHF iter   7:  -224.84369542879747   -3.08807e-06   2.19503e-06 DIIS
   @DF-RHF iter   8:  -224.84369616071592   -7.31918e-07   7.77587e-07 DIIS
   @DF-RHF iter   9:  -224.84369627150988   -1.10794e-07   1.87961e-07 DIIS
   @DF-RHF iter  10:  -224.84369627704552   -5.53564e-09   7.33125e-08 DIIS
   @DF-RHF iter  11:  -224.84369627787177   -8.26248e-10   3.26918e-08 DIIS
   @DF-RHF iter  12:  -224.84369627802351   -1.51744e-10   9.70884e-09 DIIS
   @DF-RHF iter  13:  -224.84369627803702   -1.35003e-11   3.58840e-09 DIIS
   @DF-RHF iter  14:  -224.84369627803861   -1.59162e-12   1.58275e-09 DIIS
   @DF-RHF iter  15:  -224.84369627803861    0.00000e+00   5.27556e-10 DIIS
   @DF-RHF iter  16:  -224.84369627803909   -4.83169e-13   2.34516e-10 DIIS
   @DF-RHF iter  17:  -224.84369627803912   -2.84217e-14   4.71141e-11 DIIS
  Energy and wave function converged.


  ==> Post-Iterations <==

    Orbital Energies [Eh]
    ---------------------

    Doubly Occupied:

       1A    -15.637071     2A    -15.551216     3A    -11.300916
       4A    -11.263160     5A    -11.245653     6A     -1.352867
       7A     -1.169098     8A     -1.012098     9A     -0.824390
      10A     -0.803731    11A     -0.760666    12A     -0.610096
      13A     -0.603958    14A     -0.601922    15A     -0.570942
      16A     -0.435483    17A     -0.400464    18A     -0.320685

    Virtual:

      19A      0.023125    20A      0.025388    21A      0.040742
      22A      0.041580    23A      0.044071    24A      0.049997
      25A      0.061864    26A      0.068304    27A      0.077104
      28A      0.086798    29A      0.089096    30A      0.098118
      31A      0.101397    32A      0.120831    33A      0.125178
      34A      0.125552    35A      0.125577    36A      0.127320
      37A      0.127842    38A      0.133472    39A      0.133773
      40A      0.134769    41A      0.138643    42A      0.140942
      43A      0.156500    44A      0.157171    45A      0.158699
      46A      0.171988    47A      0.178189    48A      0.187224
      49A      0.192792    50A      0.208363    51A      0.209950
      52A      0.211559    53A      0.213079    54A      0.220268
      55A      0.220880    56A      0.223113    57A      0.232359
      58A      0.233650    59A      0.241408    60A      0.261605
      61A      0.267803    62A      0.272746    63A      0.277911
      64A      0.299974    65A      0.301746    66A      0.307008
      67A      0.314442    68A      0.319812    69A      0.338197
      70A      0.360808    71A      0.361488    72A      0.370745
      73A      0.376006    74A      0.379800    75A      0.388291
      76A      0.394031    77A      0.397097    78A      0.417031
      79A      0.427899    80A      0.429000    81A      0.435719
      82A      0.440945    83A      0.449630    84A      0.452059
      85A      0.452746    86A      0.466350    87A      0.468717
      88A      0.481229    89A      0.481636    90A      0.486283
      91A      0.488151    92A      0.517924    93A      0.521165
      94A      0.536614    95A      0.538849    96A      0.543691
      97A      0.551710    98A      0.556382    99A      0.556459
     100A      0.568280   101A      0.576474   102A      0.579995
     103A      0.588166   104A      0.594249   105A      0.598939
     106A      0.606981   107A      0.612703   108A      0.616080
     109A      0.618943   110A      0.636538   111A      0.640323
     112A      0.652504   113A      0.669282   114A      0.671337
     115A      0.678185   116A      0.678241   117A      0.683874
     118A      0.684340   119A      0.711785   120A      0.714698
     121A      0.725758   122A      0.736655   123A      0.741238
     124A      0.756754   125A      0.762698   126A      0.767400
     127A      0.790929   128A      0.793606   129A      0.798833
     130A      0.809747   131A      0.811077   132A      0.813139
     133A      0.823808   134A      0.837159   135A      0.860180
     136A      0.860398   137A      0.871425   138A      0.885765
     139A      0.887157   140A      0.889823   141A      0.910350
     142A      0.920242   143A      0.927494   144A      0.954351
     145A      0.969334   146A      0.976964   147A      0.992438
     148A      0.998360   149A      1.010706   150A      1.016051
     151A      1.017404   152A      1.030676   153A      1.059573
     154A      1.077353   155A      1.079239   156A      1.084552
     157A      1.104274   158A      1.116606   159A      1.126983
     160A      1.133100   161A      1.140497   162A      1.149565
     163A      1.167170   164A      1.171482   165A      1.174699
     166A      1.198194   167A      1.211215   168A      1.217445
     169A      1.260721   170A      1.278665   171A      1.291284
     172A      1.297608   173A      1.302539   174A      1.313188
     175A      1.318741   176A      1.348202   177A      1.384741
     178A      1.385028   179A      1.398145   180A      1.451143
     181A      1.495562   182A      1.503288   183A      1.516488
     184A      1.518410   185A      1.541978   186A      1.574127
     187A      1.574285   188A      1.596381   189A      1.652159
     190A      1.661570   191A      1.671505   192A      1.705286
     193A      1.724477   194A      1.782643   195A      1.799067
     196A      1.807063   197A      1.864950   198A      1.881477
     199A      1.924391   200A      1.964987   201A      2.022005
     202A      2.025429   203A      2.040288   204A      2.072981
     205A      2.101742   206A      2.107054   207A      2.120153
     208A      2.126759   209A      2.132023   210A      2.135965
     211A      2.150135   212A      2.168670   213A      2.178815
     214A      2.185678   215A      2.230405   216A      2.253403
     217A      2.267082   218A      2.275963   219A      2.300924
     220A      2.309316   221A      2.327885   222A      2.332072
     223A      2.377601   224A      2.406363   225A      2.414032
     226A      2.417758   227A      2.456424   228A      2.471562
     229A      2.494639   230A      2.496919   231A      2.514025
     232A      2.526640   233A      2.545345   234A      2.546198
     235A      2.577574   236A      2.585743   237A      2.600588
     238A      2.633765   239A      2.696964   240A      2.734093
     241A      2.747025   242A      2.767089   243A      2.791210
     244A      2.794149   245A      2.803444   246A      2.829573
     247A      2.837641   248A      2.867213   249A      2.896631
     250A      2.934014   251A      2.950191   252A      2.952738
     253A      2.980862   254A      3.044372   255A      3.051201
     256A      3.069910   257A      3.077020   258A      3.132789
     259A      3.160502   260A      3.183777   261A      3.199163
     262A      3.208795   263A      3.214207   264A      3.334816
     265A      3.341680   266A      3.354572   267A      3.355613
     268A      3.363707   269A      3.459540   270A      3.495322
     271A      3.518552   272A      3.570469   273A      3.609774
     274A      3.708111   275A      3.727577   276A      3.768294
     277A      3.779247   278A      3.799077   279A      3.858784
     280A      3.871608   281A      4.004754   282A      4.109022
     283A      4.213661   284A      4.637595   285A      4.639674
     286A      4.696821   287A      4.772695   288A      4.880963
     289A      5.022289   290A      5.255573   291A      5.374063
     292A      5.495707   293A      5.611224   294A      5.717171
     295A      5.884828   296A      6.090595   297A      6.199063
     298A     18.256294   299A     18.591094   300A     19.301253
     301A     25.312820   302A     25.454178

    Final Occupation by Irrep:
              A
    DOCC [    18 ]

  @DF-RHF Final Energy:  -224.84369627803912

   => Energetics <=

    Nuclear Repulsion Energy =            164.0866959941843959
    One-Electron Energy =                -628.9319562962666623
    Two-Electron Energy =                 240.0015640240431196
    Total Energy =                       -224.8436962780391184

Computation Completed


Properties will be evaluated at   0.000000,   0.000000,   0.000000 [a0]

Properties computed using the SCF density matrix

  Nuclear Dipole Moment: [e a0]
     X:  -102.4221      Y:  -129.0981      Z:   128.4908

  Electronic Dipole Moment: [e a0]
     X:   103.2259      Y:   129.2613      Z:  -129.8232

  Dipole Moment: [e a0]
     X:     0.8038      Y:     0.1633      Z:    -1.3324     Total:     1.5646

  Dipole Moment: [D]
     X:     2.0431      Y:     0.4150      Z:    -3.3867     Total:     3.9769


*** tstop() called on ds1 at Tue Sep 14 17:29:11 2021
Module time:
	user time   =      15.68 seconds =       0.26 minutes
	system time =       0.34 seconds =       0.01 minutes
	total time  =          4 seconds =       0.07 minutes
Total time:
	user time   =      38.02 seconds =       0.63 minutes
	system time =       0.89 seconds =       0.01 minutes
	total time  =          9 seconds =       0.15 minutes

  //>>>>>>>>>>>>>>>>>>>>>>>>>>>>>>>>>>>//
  //            Monomer B HF           //
  //<<<<<<<<<<<<<<<<<<<<<<<<<<<<<<<<<<<//


*** tstart() called on ds1
*** at Tue Sep 14 17:29:11 2021

   => Loading Basis Set <=

    Name: AUG-CC-PVDZ
    Role: ORBITAL
    Keyword: BASIS
    atoms 1-2, 10-11 entry N          line   218 file /theoryfs2/ds/csargent/miniconda3/envs/cle/share/psi4/basis/aug-cc-pvdz.gbs
    atoms 3-6, 12-15 entry H          line    40 file /theoryfs2/ds/csargent/miniconda3/envs/cle/share/psi4/basis/aug-cc-pvdz.gbs
    atoms 7-9, 16-18 entry C          line   182 file /theoryfs2/ds/csargent/miniconda3/envs/cle/share/psi4/basis/aug-cc-pvdz.gbs


         ---------------------------------------------------------
                                   SCF
               by Justin Turney, Rob Parrish, Andy Simmonett
                          and Daniel G. A. Smith
                              RHF Reference
                        6 Threads,   6675 MiB Core
         ---------------------------------------------------------

  ==> Geometry <==

    Molecular point group: c1
    Full point group: C1

    Geometry (in Bohr), charge = 0, multiplicity = 1:

       Center              X                  Y                   Z               Mass
    ------------   -----------------  -----------------  -----------------  -----------------
      Gh(N)          -4.293096210000    -3.068374310000     5.305162310000    14.003074004430
      Gh(N)          -2.158473710000    -2.926272960000     1.720374480000    14.003074004430
      Gh(H)          -0.025455870000    -6.359035750000     2.220464520000     1.007825032230
      Gh(H)          -2.685669680000    -6.532602410000     6.614459540000     1.007825032230
      Gh(H)          -4.743884230000    -0.006090060000     2.756159680000     1.007825032230
      Gh(H)          -1.410455400000    -2.247231470000     0.000000000000     1.007825032230
      Gh(C)          -1.437379910000    -5.075048480000     2.940658910000    12.000000000000
      Gh(C)          -2.769007820000    -5.146099160000     5.135228800000    12.000000000000
      Gh(C)          -3.859550360000    -1.777281980000     3.210934110000    12.000000000000
         N          -28.022453930000    24.271926870000    11.490742040000    14.003074004430
         N          -30.157076430000    24.129825520000    15.075529880000    14.003074004430
         H          -32.290094280000    27.562588310000    14.575439840000     1.007825032230
         H          -29.629880460000    27.736154970000    10.181444820000     1.007825032230
         H          -27.571665920000    21.209642620000    14.039744680000     1.007825032230
         H          -30.905094740000    23.450784030000    16.795904350000     1.007825032230
         C          -30.878170230000    26.278601040000    13.855245440000    12.000000000000
         C          -29.546542320000    26.349651720000    11.660675550000    12.000000000000
         C          -28.455999790000    22.980834540000    13.584970240000    12.000000000000

  Running in c1 symmetry.

  Rotational constants: A =      0.02299  B =      0.00053  C =      0.00052 [cm^-1]
  Rotational constants: A =    689.15607  B =     15.96510  C =     15.61692 [MHz]
  Nuclear repulsion =  164.086695939785528

  Charge       = 0
  Multiplicity = 1
  Electrons    = 36
  Nalpha       = 18
  Nbeta        = 18

  ==> Algorithm <==

  SCF Algorithm Type is DF.
  DIIS enabled.
  MOM disabled.
  Fractional occupation disabled.
  Guess Type is SAD.
  Energy threshold   = 1.00e-10
  Density threshold  = 1.00e-10
  Integral threshold = 1.00e-12

  ==> Primary Basis <==

  Basis Set: AUG-CC-PVDZ
    Blend: AUG-CC-PVDZ
    Number of shells: 130
    Number of basis functions: 302
    Number of Cartesian functions: 322
    Spherical Harmonics?: true
    Max angular momentum: 2

   => Loading Basis Set <=

    Name: (AUG-CC-PVDZ AUX)
    Role: JKFIT
    Keyword: DF_BASIS_SCF
    atoms 1-2, 10-11 entry N          line   212 file /theoryfs2/ds/csargent/miniconda3/envs/cle/share/psi4/basis/aug-cc-pvdz-jkfit.gbs
    atoms 3-6, 12-15 entry H          line    70 file /theoryfs2/ds/csargent/miniconda3/envs/cle/share/psi4/basis/aug-cc-pvdz-jkfit.gbs
    atoms 7-9, 16-18 entry C          line   154 file /theoryfs2/ds/csargent/miniconda3/envs/cle/share/psi4/basis/aug-cc-pvdz-jkfit.gbs

  ==> Integral Setup <==

  ==> DiskDFJK: Density-Fitted J/K Matrices <==

    J tasked:                  Yes
    K tasked:                  Yes
    wK tasked:                  No
    OpenMP threads:              6
    Integrals threads:           6
    Memory [MiB]:             5006
    Algorithm:                Core
    Integral Cache:           LOAD
    Schwarz Cutoff:          1E-12
    Fitting Condition:       1E-10

   => Auxiliary Basis Set <=

  Basis Set: (AUG-CC-PVDZ AUX)
    Blend: AUG-CC-PVDZ-JKFIT
    Number of shells: 376
    Number of basis functions: 1116
    Number of Cartesian functions: 1290
    Spherical Harmonics?: true
    Max angular momentum: 3

  Minimum eigenvalue in the overlap matrix is 2.1837061925E-05.
  Reciprocal condition number of the overlap matrix is 1.8394513228E-06.
    Using symmetric orthogonalization.

  ==> Pre-Iterations <==

  SCF Guess: Superposition of Atomic Densities via on-the-fly atomic UHF (no occupation information).

   -------------------------
    Irrep   Nso     Nmo
   -------------------------
     A        302     302
   -------------------------
    Total     302     302
   -------------------------

  ==> Iterations <==

                           Total Energy        Delta E     RMS |[F,P]|

   @DF-RHF iter SAD:  -224.55857169132125   -2.24559e+02   0.00000e+00
   @DF-RHF iter   1:  -224.69806464765088   -1.39493e-01   1.63067e-03 DIIS
   @DF-RHF iter   2:  -224.80532026623919   -1.07256e-01   9.27384e-04 DIIS
   @DF-RHF iter   3:  -224.84168817011965   -3.63679e-02   1.74019e-04 DIIS
   @DF-RHF iter   4:  -224.84337342220391   -1.68525e-03   7.98972e-05 DIIS
   @DF-RHF iter   5:  -224.84367500292026   -3.01581e-04   1.26452e-05 DIIS
   @DF-RHF iter   6:  -224.84369233995275   -1.73370e-05   5.61871e-06 DIIS
   @DF-RHF iter   7:  -224.84369542802241   -3.08807e-06   2.19503e-06 DIIS
   @DF-RHF iter   8:  -224.84369615994038   -7.31918e-07   7.77587e-07 DIIS
   @DF-RHF iter   9:  -224.84369627073491   -1.10795e-07   1.87961e-07 DIIS
   @DF-RHF iter  10:  -224.84369627627026   -5.53536e-09   7.33125e-08 DIIS
   @DF-RHF iter  11:  -224.84369627709634   -8.26077e-10   3.26918e-08 DIIS
   @DF-RHF iter  12:  -224.84369627724865   -1.52312e-10   9.70884e-09 DIIS
   @DF-RHF iter  13:  -224.84369627726187   -1.32161e-11   3.58840e-09 DIIS
   @DF-RHF iter  14:  -224.84369627726352   -1.64846e-12   1.58275e-09 DIIS
   @DF-RHF iter  15:  -224.84369627726380   -2.84217e-13   5.27556e-10 DIIS
   @DF-RHF iter  16:  -224.84369627726389   -8.52651e-14   2.34517e-10 DIIS
   @DF-RHF iter  17:  -224.84369627726409   -1.98952e-13   4.71140e-11 DIIS
  Energy and wave function converged.


  ==> Post-Iterations <==

    Orbital Energies [Eh]
    ---------------------

    Doubly Occupied:

       1A    -15.637071     2A    -15.551216     3A    -11.300916
       4A    -11.263160     5A    -11.245653     6A     -1.352867
       7A     -1.169098     8A     -1.012098     9A     -0.824390
      10A     -0.803731    11A     -0.760666    12A     -0.610096
      13A     -0.603958    14A     -0.601922    15A     -0.570942
      16A     -0.435483    17A     -0.400464    18A     -0.320685

    Virtual:

      19A      0.023125    20A      0.025388    21A      0.040742
      22A      0.041580    23A      0.044071    24A      0.049997
      25A      0.061864    26A      0.068304    27A      0.077104
      28A      0.086798    29A      0.089096    30A      0.098118
      31A      0.101397    32A      0.120831    33A      0.125178
      34A      0.125552    35A      0.125577    36A      0.127320
      37A      0.127842    38A      0.133472    39A      0.133773
      40A      0.134769    41A      0.138643    42A      0.140942
      43A      0.156500    44A      0.157171    45A      0.158699
      46A      0.171988    47A      0.178189    48A      0.187224
      49A      0.192792    50A      0.208363    51A      0.209950
      52A      0.211559    53A      0.213079    54A      0.220268
      55A      0.220880    56A      0.223113    57A      0.232359
      58A      0.233650    59A      0.241408    60A      0.261605
      61A      0.267803    62A      0.272746    63A      0.277911
      64A      0.299974    65A      0.301746    66A      0.307008
      67A      0.314442    68A      0.319812    69A      0.338197
      70A      0.360808    71A      0.361488    72A      0.370745
      73A      0.376006    74A      0.379800    75A      0.388291
      76A      0.394031    77A      0.397097    78A      0.417031
      79A      0.427899    80A      0.429000    81A      0.435719
      82A      0.440945    83A      0.449630    84A      0.452059
      85A      0.452746    86A      0.466350    87A      0.468717
      88A      0.481229    89A      0.481636    90A      0.486283
      91A      0.488151    92A      0.517924    93A      0.521165
      94A      0.536614    95A      0.538849    96A      0.543691
      97A      0.551710    98A      0.556382    99A      0.556459
     100A      0.568280   101A      0.576474   102A      0.579995
     103A      0.588166   104A      0.594249   105A      0.598939
     106A      0.606981   107A      0.612703   108A      0.616080
     109A      0.618943   110A      0.636538   111A      0.640323
     112A      0.652504   113A      0.669282   114A      0.671337
     115A      0.678185   116A      0.678241   117A      0.683874
     118A      0.684340   119A      0.711785   120A      0.714698
     121A      0.725758   122A      0.736655   123A      0.741238
     124A      0.756754   125A      0.762698   126A      0.767400
     127A      0.790929   128A      0.793606   129A      0.798833
     130A      0.809747   131A      0.811077   132A      0.813139
     133A      0.823808   134A      0.837159   135A      0.860180
     136A      0.860398   137A      0.871425   138A      0.885765
     139A      0.887157   140A      0.889823   141A      0.910350
     142A      0.920242   143A      0.927494   144A      0.954351
     145A      0.969334   146A      0.976964   147A      0.992438
     148A      0.998360   149A      1.010706   150A      1.016051
     151A      1.017404   152A      1.030676   153A      1.059573
     154A      1.077353   155A      1.079239   156A      1.084552
     157A      1.104274   158A      1.116606   159A      1.126983
     160A      1.133100   161A      1.140497   162A      1.149565
     163A      1.167170   164A      1.171482   165A      1.174699
     166A      1.198194   167A      1.211215   168A      1.217445
     169A      1.260721   170A      1.278665   171A      1.291284
     172A      1.297608   173A      1.302539   174A      1.313188
     175A      1.318741   176A      1.348202   177A      1.384741
     178A      1.385028   179A      1.398145   180A      1.451143
     181A      1.495562   182A      1.503288   183A      1.516488
     184A      1.518410   185A      1.541978   186A      1.574127
     187A      1.574285   188A      1.596381   189A      1.652159
     190A      1.661570   191A      1.671505   192A      1.705286
     193A      1.724477   194A      1.782643   195A      1.799067
     196A      1.807063   197A      1.864950   198A      1.881477
     199A      1.924391   200A      1.964987   201A      2.022005
     202A      2.025429   203A      2.040288   204A      2.072981
     205A      2.101742   206A      2.107054   207A      2.120153
     208A      2.126759   209A      2.132023   210A      2.135965
     211A      2.150135   212A      2.168670   213A      2.178815
     214A      2.185678   215A      2.230405   216A      2.253403
     217A      2.267082   218A      2.275963   219A      2.300924
     220A      2.309316   221A      2.327885   222A      2.332072
     223A      2.377601   224A      2.406363   225A      2.414032
     226A      2.417758   227A      2.456424   228A      2.471562
     229A      2.494639   230A      2.496919   231A      2.514025
     232A      2.526640   233A      2.545345   234A      2.546198
     235A      2.577574   236A      2.585743   237A      2.600588
     238A      2.633765   239A      2.696964   240A      2.734093
     241A      2.747025   242A      2.767089   243A      2.791210
     244A      2.794149   245A      2.803444   246A      2.829573
     247A      2.837641   248A      2.867213   249A      2.896631
     250A      2.934014   251A      2.950191   252A      2.952738
     253A      2.980862   254A      3.044372   255A      3.051201
     256A      3.069910   257A      3.077020   258A      3.132789
     259A      3.160502   260A      3.183777   261A      3.199163
     262A      3.208795   263A      3.214207   264A      3.334816
     265A      3.341680   266A      3.354572   267A      3.355613
     268A      3.363707   269A      3.459540   270A      3.495322
     271A      3.518552   272A      3.570469   273A      3.609774
     274A      3.708111   275A      3.727577   276A      3.768294
     277A      3.779247   278A      3.799077   279A      3.858784
     280A      3.871608   281A      4.004754   282A      4.109022
     283A      4.213661   284A      4.637595   285A      4.639674
     286A      4.696821   287A      4.772695   288A      4.880963
     289A      5.022289   290A      5.255573   291A      5.374063
     292A      5.495707   293A      5.611224   294A      5.717171
     295A      5.884828   296A      6.090595   297A      6.199063
     298A     18.256294   299A     18.591094   300A     19.301253
     301A     25.312820   302A     25.454178

    Final Occupation by Irrep:
              A
    DOCC [    18 ]

  @DF-RHF Final Energy:  -224.84369627726409

   => Energetics <=

    Nuclear Repulsion Energy =            164.0866959397855283
    One-Electron Energy =                -628.9319561836264256
    Two-Electron Energy =                 240.0015639665768390
    Total Energy =                       -224.8436962772640868

Computation Completed


Properties will be evaluated at   0.000000,   0.000000,   0.000000 [a0]

Properties computed using the SCF density matrix

  Nuclear Dipole Moment: [e a0]
     X: -1060.9377      Y:   892.4260      Z:   476.1618

  Electronic Dipole Moment: [e a0]
     X:  1060.1339      Y:  -892.5892      Z:  -474.8294

  Dipole Moment: [e a0]
     X:    -0.8038      Y:    -0.1633      Z:     1.3324     Total:     1.5646

  Dipole Moment: [D]
     X:    -2.0431      Y:    -0.4150      Z:     3.3867     Total:     3.9769


*** tstop() called on ds1 at Tue Sep 14 17:29:14 2021
Module time:
	user time   =      15.93 seconds =       0.27 minutes
	system time =       0.37 seconds =       0.01 minutes
	total time  =          3 seconds =       0.05 minutes
Total time:
	user time   =      54.13 seconds =       0.90 minutes
	system time =       1.27 seconds =       0.02 minutes
	total time  =         12 seconds =       0.20 minutes
  Constructing Basis Sets for SAPT...

   => Loading Basis Set <=

    Name: (AUG-CC-PVDZ AUX)
    Role: RIFIT
    Keyword: DF_BASIS_SAPT
    atoms 1-2, 10-11 entry N          line   158 file /theoryfs2/ds/csargent/miniconda3/envs/cle/share/psi4/basis/aug-cc-pvdz-ri.gbs
    atoms 3-6, 12-15 entry H          line    30 file /theoryfs2/ds/csargent/miniconda3/envs/cle/share/psi4/basis/aug-cc-pvdz-ri.gbs
    atoms 7-9, 16-18 entry C          line   112 file /theoryfs2/ds/csargent/miniconda3/envs/cle/share/psi4/basis/aug-cc-pvdz-ri.gbs


  //>>>>>>>>>>>>>>>>>>>>>>>>>>>>>>>>>>>//
  //               SAPT0               //
  //<<<<<<<<<<<<<<<<<<<<<<<<<<<<<<<<<<<//


*** tstart() called on ds1
*** at Tue Sep 14 17:29:14 2021

        SAPT0
    Ed Hohenstein
     6 June 2009

      Orbital Information
  --------------------------
    NSO        =       302
    NMO        =       302
    NRI        =       904
    NOCC A     =        18
    NOCC B     =        18
    FOCC A     =         5
    FOCC B     =         5
    NVIR A     =       284
    NVIR B     =       284

    Elst10,r            =    -0.000022348104 [Eh]
    Exch10              =    -0.000000000000 [Eh]
    Exch10 (S^2)        =    -0.000000000000 [Eh]

    Iter     Energy [mEh]          dE [mEh]         Residual      Time [s]
       1      -0.00002965       0.000029650       0.054328963             0
       2      -0.00002839      -0.000001257       0.015142060             1
       3      -0.00003187       0.000003479       0.005150929             1
       4      -0.00003206       0.000000189       0.002384026             1
       5      -0.00003193      -0.000000128       0.001012763             1
       6      -0.00003192      -0.000000015       0.000276325             1
       7      -0.00003193       0.000000010       0.000097532             1
       8      -0.00003193       0.000000004       0.000025971             1
       9      -0.00003193      -0.000000002       0.000008457             1
      10      -0.00003193       0.000000000       0.000003665             2
      11      -0.00003193       0.000000000       0.000000941             2

    CHF Iterations converged


    Iter     Energy [mEh]          dE [mEh]         Residual      Time [s]
       1      -0.00002965       0.000029650       0.054328963             0
       2      -0.00002839      -0.000001257       0.015142060             0
       3      -0.00003187       0.000003479       0.005150929             0
       4      -0.00003206       0.000000189       0.002384026             0
       5      -0.00003193      -0.000000128       0.001012763             0
       6      -0.00003192      -0.000000015       0.000276325             0
       7      -0.00003193       0.000000010       0.000097532             1
       8      -0.00003193       0.000000004       0.000025971             1
       9      -0.00003193      -0.000000002       0.000008457             1
      10      -0.00003193       0.000000000       0.000003665             1
      11      -0.00003193       0.000000000       0.000000941             1

    CHF Iterations converged

    Ind20,r (A<-B)      =    -0.000000031929 [Eh]
    Ind20,r (B<-A)      =    -0.000000031929 [Eh]
    Ind20,r             =    -0.000000063859 [Eh]
    Exch-Ind20,r (A<-B) =     0.000000000000 [Eh]
    Exch-Ind20,r (B<-A) =     0.000000000000 [Eh]
    Exch-Ind20,r        =     0.000000000000 [Eh]
    Disp20              =    -0.000000337808 [Eh]
    Disp20 (SS)         =    -0.000000168904 [Eh]
    Disp20 (OS)         =    -0.000000168904 [Eh]
    Exch-Disp20         =     0.000000000000 [Eh]
    Exch-Disp20 (SS)    =     0.000000000000 [Eh]
    Exch-Disp20 (OS)    =     0.000000000000 [Eh]

    SAPT Results
  --------------------------------------------------------------------------------------------------------
    Electrostatics                 -0.02234810 [mEh]      -0.01402365 [kcal/mol]      -0.05867494 [kJ/mol]
      Elst10,r                     -0.02234810 [mEh]      -0.01402365 [kcal/mol]      -0.05867494 [kJ/mol]

    Exchange                       -0.00000000 [mEh]      -0.00000000 [kcal/mol]      -0.00000000 [kJ/mol]
      Exch10                       -0.00000000 [mEh]      -0.00000000 [kcal/mol]      -0.00000000 [kJ/mol]
      Exch10(S^2)                  -0.00000000 [mEh]      -0.00000000 [kcal/mol]      -0.00000000 [kJ/mol]

    Induction                      -0.00006472 [mEh]      -0.00004061 [kcal/mol]      -0.00016991 [kJ/mol]
      Ind20,r                      -0.00006386 [mEh]      -0.00004007 [kcal/mol]      -0.00016766 [kJ/mol]
      Exch-Ind20,r                  0.00000000 [mEh]       0.00000000 [kcal/mol]       0.00000000 [kJ/mol]
      delta HF,r (2)               -0.00000086 [mEh]      -0.00000054 [kcal/mol]      -0.00000225 [kJ/mol]

    Dispersion                     -0.00033781 [mEh]      -0.00021198 [kcal/mol]      -0.00088692 [kJ/mol]
      Disp20                       -0.00033781 [mEh]      -0.00021198 [kcal/mol]      -0.00088692 [kJ/mol]
      Exch-Disp20                   0.00000000 [mEh]       0.00000000 [kcal/mol]       0.00000000 [kJ/mol]
      Disp20 (SS)                  -0.00016890 [mEh]      -0.00010599 [kcal/mol]      -0.00044346 [kJ/mol]
      Disp20 (OS)                  -0.00016890 [mEh]      -0.00010599 [kcal/mol]      -0.00044346 [kJ/mol]
      Exch-Disp20 (SS)              0.00000000 [mEh]       0.00000000 [kcal/mol]       0.00000000 [kJ/mol]
      Exch-Disp20 (OS)              0.00000000 [mEh]       0.00000000 [kcal/mol]       0.00000000 [kJ/mol]

  Total HF                         -0.02241282 [mEh]      -0.01406426 [kcal/mol]      -0.05884485 [kJ/mol]
  Total SAPT0                      -0.02275063 [mEh]      -0.01427624 [kcal/mol]      -0.05973177 [kJ/mol]

  Special recipe for scaled SAPT0 (see Manual):
    Electrostatics sSAPT0          -0.02234810 [mEh]      -0.01402365 [kcal/mol]      -0.05867494 [kJ/mol]
    Exchange sSAPT0                -0.00000000 [mEh]      -0.00000000 [kcal/mol]      -0.00000000 [kJ/mol]
    Induction sSAPT0               -0.00006472 [mEh]      -0.00004061 [kcal/mol]      -0.00016991 [kJ/mol]
    Dispersion sSAPT0              -0.00033781 [mEh]      -0.00021198 [kcal/mol]      -0.00088692 [kJ/mol]
  Total sSAPT0                     -0.02275063 [mEh]      -0.01427624 [kcal/mol]      -0.05973177 [kJ/mol]
  --------------------------------------------------------------------------------------------------------

*** tstop() called on ds1 at Tue Sep 14 17:29:24 2021
Module time:
	user time   =      44.03 seconds =       0.73 minutes
	system time =       3.78 seconds =       0.06 minutes
	total time  =         10 seconds =       0.17 minutes
Total time:
	user time   =      99.13 seconds =       1.65 minutes
	system time =       5.07 seconds =       0.08 minutes
	total time  =         22 seconds =       0.37 minutes


Warning! sapt0 does not have an associated derived wavefunction.The returned wavefunction is the dimer SCF wavefunction.


    Psi4 stopped on: Tuesday, 14 September 2021 05:29PM
    Psi4 wall time for execution: 0:00:21.39

*** Psi4 exiting successfully. Buy a developer a beer!
