
    -----------------------------------------------------------------------
          Psi4: An Open-Source Ab Initio Electronic Structure Package
                               Psi4 1.4rc3

                         Git: Rev {HEAD} 080dba6


    D. G. A. Smith, L. A. Burns, A. C. Simmonett, R. M. Parrish,
    M. C. Schieber, R. Galvelis, P. Kraus, H. Kruse, R. Di Remigio,
    A. Alenaizan, A. M. James, S. Lehtola, J. P. Misiewicz, M. Scheurer,
    R. A. Shaw, J. B. Schriber, Y. Xie, Z. L. Glick, D. A. Sirianni,
    J. S. O'Brien, J. M. Waldrop, A. Kumar, E. G. Hohenstein,
    B. P. Pritchard, B. R. Brooks, H. F. Schaefer III, A. Yu. Sokolov,
    K. Patkowski, A. E. DePrince III, U. Bozkaya, R. A. King,
    F. A. Evangelista, J. M. Turney, T. D. Crawford, C. D. Sherrill,
    J. Chem. Phys. 152(18) 184108 (2020). https://doi.org/10.1063/5.0006002

                            Additional Code Authors
    E. T. Seidl, C. L. Janssen, E. F. Valeev, M. L. Leininger,
    J. F. Gonthier, R. M. Richard, H. R. McAlexander, M. Saitow, X. Wang,
    P. Verma, and M. H. Lechner

             Previous Authors, Complete List of Code Contributors,
                       and Citations for Specific Modules
    https://github.com/psi4/psi4/blob/master/codemeta.json
    https://github.com/psi4/psi4/graphs/contributors
    http://psicode.org/psi4manual/master/introduction.html#citing-psifour

    -----------------------------------------------------------------------


    Psi4 started on: Tuesday, 14 September 2021 05:03PM

    Process ID: 2146
    Host:       ds1
    PSIDATADIR: /theoryfs2/ds/csargent/miniconda3/envs/cle/share/psi4
    Memory:     500.0 MiB
    Threads:    6

  ==> Input File <==

--------------------------------------------------------------------------
# PSI4 file produced by CrystaLattE

# Generated from:               imidazole.xyz
# Psithon input for N-mer:      2mer-0+85
# Number of atoms per monomer:  [9, 9]
# Number of replicas:           2
# COM priority:                 9.483927887867e-05
# Minimum COM separations:      11.604
# Separation priority:          1.970754545859e-04
# Minimum monomer separations:  9.093
# Cutoff priority:              1.146859058816e-05
# Nuclear repulsion energy:     386.9225113480274

memory 7 GB

molecule Dimer_0_85 {
  N           -4.29309621      -3.06837431       5.30516231
  N           -2.15847371      -2.92627296       1.72037448
  H           -0.02545587      -6.35903575       2.22046452
  H           -2.68566968      -6.53260241       6.61445954
  H           -4.74388423      -0.00609006       2.75615968
  H           -1.41045540      -2.24723147       0.00000000
  C           -1.43737991      -5.07504848       2.94065891
  C           -2.76900782      -5.14609916       5.13522880
  C           -3.85955036      -1.77728198       3.21093411
--
  N           10.48020441       2.00667417      19.58281390
  N            8.34558191       2.14877553      23.16760174
  H            6.21256406      -1.28398727      22.66751170
  H            8.87277788      -1.45755392      18.27351668
  H           10.93099242       5.06895842      22.13181654
  H            7.59756360       2.82781701      24.88797622
  C            7.62448811      -0.00000000      21.94731730
  C            8.95611602      -0.07105068      19.75274741
  C           10.04665856       3.29776650      21.67704210
units = au
no_com
no_reorient
}

set {
  e_convergence 10
  d_convergence 10
  scf_type df
  mp2_type df
  cc_type df
  freeze_core true
}

energy('sapt0/aug-cc-pvdz')

--------------------------------------------------------------------------

  Memory set to   6.519 GiB by Python driver.

Scratch directory: /scratch/csargent/psi4.31446.79897/

Scratch directory: /scratch/csargent/psi4.31446.79897/

  //>>>>>>>>>>>>>>>>>>>>>>>>>>>>>>>>>>>//
  //              Dimer HF             //
  //<<<<<<<<<<<<<<<<<<<<<<<<<<<<<<<<<<<//


*** tstart() called on ds1
*** at Tue Sep 14 17:03:34 2021

   => Loading Basis Set <=

    Name: AUG-CC-PVDZ
    Role: ORBITAL
    Keyword: BASIS
    atoms 1-2, 10-11 entry N          line   218 file /theoryfs2/ds/csargent/miniconda3/envs/cle/share/psi4/basis/aug-cc-pvdz.gbs
    atoms 3-6, 12-15 entry H          line    40 file /theoryfs2/ds/csargent/miniconda3/envs/cle/share/psi4/basis/aug-cc-pvdz.gbs
    atoms 7-9, 16-18 entry C          line   182 file /theoryfs2/ds/csargent/miniconda3/envs/cle/share/psi4/basis/aug-cc-pvdz.gbs


         ---------------------------------------------------------
                                   SCF
               by Justin Turney, Rob Parrish, Andy Simmonett
                          and Daniel G. A. Smith
                              RHF Reference
                        6 Threads,   6675 MiB Core
         ---------------------------------------------------------

  ==> Geometry <==

    Molecular point group: c1
    Full point group: C1

    Geometry (in Bohr), charge = 0, multiplicity = 1:

       Center              X                  Y                   Z               Mass
    ------------   -----------------  -----------------  -----------------  -----------------
         N           -4.293096210000    -3.068374310000     5.305162310000    14.003074004430
         N           -2.158473710000    -2.926272960000     1.720374480000    14.003074004430
         H           -0.025455870000    -6.359035750000     2.220464520000     1.007825032230
         H           -2.685669680000    -6.532602410000     6.614459540000     1.007825032230
         H           -4.743884230000    -0.006090060000     2.756159680000     1.007825032230
         H           -1.410455400000    -2.247231470000     0.000000000000     1.007825032230
         C           -1.437379910000    -5.075048480000     2.940658910000    12.000000000000
         C           -2.769007820000    -5.146099160000     5.135228800000    12.000000000000
         C           -3.859550360000    -1.777281980000     3.210934110000    12.000000000000
         N           10.480204410000     2.006674170000    19.582813900000    14.003074004430
         N            8.345581910000     2.148775530000    23.167601740000    14.003074004430
         H            6.212564060000    -1.283987270000    22.667511700000     1.007825032230
         H            8.872777880000    -1.457553920000    18.273516680000     1.007825032230
         H           10.930992420000     5.068958420000    22.131816540000     1.007825032230
         H            7.597563600000     2.827817010000    24.887976220000     1.007825032230
         C            7.624488110000     0.000000000000    21.947317300000    12.000000000000
         C            8.956116020000    -0.071050680000    19.752747410000    12.000000000000
         C           10.046658560000     3.297766500000    21.677042100000    12.000000000000

  Running in c1 symmetry.

  Rotational constants: A =      0.02318  B =      0.00161  C =      0.00153 [cm^-1]
  Rotational constants: A =    694.91720  B =     48.39201  C =     45.85934 [MHz]
  Nuclear repulsion =  386.922511338567972

  Charge       = 0
  Multiplicity = 1
  Electrons    = 72
  Nalpha       = 36
  Nbeta        = 36

  ==> Algorithm <==

  SCF Algorithm Type is DF.
  DIIS enabled.
  MOM disabled.
  Fractional occupation disabled.
  Guess Type is SAD.
  Energy threshold   = 1.00e-10
  Density threshold  = 1.00e-10
  Integral threshold = 1.00e-12

  ==> Primary Basis <==

  Basis Set: AUG-CC-PVDZ
    Blend: AUG-CC-PVDZ
    Number of shells: 130
    Number of basis functions: 302
    Number of Cartesian functions: 322
    Spherical Harmonics?: true
    Max angular momentum: 2

   => Loading Basis Set <=

    Name: (AUG-CC-PVDZ AUX)
    Role: JKFIT
    Keyword: DF_BASIS_SCF
    atoms 1-2, 10-11 entry N          line   212 file /theoryfs2/ds/csargent/miniconda3/envs/cle/share/psi4/basis/aug-cc-pvdz-jkfit.gbs
    atoms 3-6, 12-15 entry H          line    70 file /theoryfs2/ds/csargent/miniconda3/envs/cle/share/psi4/basis/aug-cc-pvdz-jkfit.gbs
    atoms 7-9, 16-18 entry C          line   154 file /theoryfs2/ds/csargent/miniconda3/envs/cle/share/psi4/basis/aug-cc-pvdz-jkfit.gbs

  ==> Integral Setup <==

  ==> DiskDFJK: Density-Fitted J/K Matrices <==

    J tasked:                  Yes
    K tasked:                  Yes
    wK tasked:                  No
    OpenMP threads:              6
    Integrals threads:           6
    Memory [MiB]:             5006
    Algorithm:                Core
    Integral Cache:           SAVE
    Schwarz Cutoff:          1E-12
    Fitting Condition:       1E-10

   => Auxiliary Basis Set <=

  Basis Set: (AUG-CC-PVDZ AUX)
    Blend: AUG-CC-PVDZ-JKFIT
    Number of shells: 376
    Number of basis functions: 1116
    Number of Cartesian functions: 1290
    Spherical Harmonics?: true
    Max angular momentum: 3

  Minimum eigenvalue in the overlap matrix is 2.1482687481E-05.
  Reciprocal condition number of the overlap matrix is 1.8094583887E-06.
    Using symmetric orthogonalization.

  ==> Pre-Iterations <==

  SCF Guess: Superposition of Atomic Densities via on-the-fly atomic UHF (no occupation information).

   -------------------------
    Irrep   Nso     Nmo
   -------------------------
     A        302     302
   -------------------------
    Total     302     302
   -------------------------

  ==> Iterations <==

                           Total Energy        Delta E     RMS |[F,P]|

   @DF-RHF iter SAD:  -449.11714346264478   -4.49117e+02   0.00000e+00
   @DF-RHF iter   1:  -449.39623669578066   -2.79093e-01   2.30600e-03 DIIS
   @DF-RHF iter   2:  -449.61072437112045   -2.14488e-01   1.31135e-03 DIIS
   @DF-RHF iter   3:  -449.68343762259252   -7.27133e-02   2.45838e-04 DIIS
   @DF-RHF iter   4:  -449.68680433752127   -3.36671e-03   1.12799e-04 DIIS
   @DF-RHF iter   5:  -449.68740538702303   -6.01050e-04   1.78697e-05 DIIS
   @DF-RHF iter   6:  -449.68744001609411   -3.46291e-05   7.94096e-06 DIIS
   @DF-RHF iter   7:  -449.68744618793107   -6.17184e-06   3.10340e-06 DIIS
   @DF-RHF iter   8:  -449.68744765316251   -1.46523e-06   1.10023e-06 DIIS
   @DF-RHF iter   9:  -449.68744787504028   -2.21878e-07   2.66418e-07 DIIS
   @DF-RHF iter  10:  -449.68744788612133   -1.10811e-08   1.04417e-07 DIIS
   @DF-RHF iter  11:  -449.68744788779287   -1.67154e-09   4.62725e-08 DIIS
   @DF-RHF iter  12:  -449.68744788809823   -3.05363e-10   1.38031e-08 DIIS
   @DF-RHF iter  13:  -449.68744788812558   -2.73417e-11   5.10319e-09 DIIS
   @DF-RHF iter  14:  -449.68744788812876   -3.18323e-12   2.24997e-09 DIIS
   @DF-RHF iter  15:  -449.68744788812961   -8.52651e-13   7.60726e-10 DIIS
   @DF-RHF iter  16:  -449.68744788812921    3.97904e-13   3.51827e-10 DIIS
   @DF-RHF iter  17:  -449.68744788812933   -1.13687e-13   1.02480e-10 DIIS
   @DF-RHF iter  18:  -449.68744788812927    5.68434e-14   4.06553e-11 DIIS
  Energy and wave function converged.


  ==> Post-Iterations <==

    Orbital Energies [Eh]
    ---------------------

    Doubly Occupied:

       1A    -15.635868     2A    -15.635635     3A    -15.550082
       4A    -15.549845     5A    -11.299759     6A    -11.299521
       7A    -11.261973     8A    -11.261616     9A    -11.244489
      10A    -11.244109    11A     -1.351680    12A     -1.351421
      13A     -1.167929    14A     -1.167674    15A     -1.010918
      16A     -1.010609    17A     -0.823210    18A     -0.822954
      19A     -0.802563    20A     -0.802247    21A     -0.759486
      22A     -0.759208    23A     -0.608931    24A     -0.608638
      25A     -0.602759    26A     -0.602506    27A     -0.600724
      28A     -0.600397    29A     -0.569812    30A     -0.569477
      31A     -0.434372    32A     -0.434123    33A     -0.399302
      34A     -0.399042    35A     -0.319493    36A     -0.319175

    Virtual:

      37A      0.026518    38A      0.026806    39A      0.040639
      40A      0.043355    41A      0.047959    42A      0.055559
      43A      0.063429    44A      0.063761    45A      0.090365
      46A      0.091131    47A      0.102244    48A      0.102797
      49A      0.121506    50A      0.122453    51A      0.125371
      52A      0.128334    53A      0.133408    54A      0.134287
      55A      0.135081    56A      0.136172    57A      0.141029
      58A      0.144287    59A      0.156622    60A      0.159463
      61A      0.159814    62A      0.160109    63A      0.172798
      64A      0.178541    65A      0.179591    66A      0.181369
      67A      0.188259    68A      0.192495    69A      0.212756
      70A      0.212941    71A      0.221730    72A      0.222017
      73A      0.233787    74A      0.233850    75A      0.242574
      76A      0.243149    77A      0.262314    78A      0.263531
      79A      0.268836    80A      0.269242    81A      0.277161
      82A      0.283268    83A      0.303268    84A      0.303604
      85A      0.315419    86A      0.315636    87A      0.339288
      88A      0.340228    89A      0.362304    90A      0.363519
      91A      0.371773    92A      0.372456    93A      0.380675
      94A      0.382028    95A      0.389469    96A      0.390221
      97A      0.397982    98A      0.399234    99A      0.417995
     100A      0.420898   101A      0.430132   102A      0.430869
     103A      0.453133   104A      0.455108   105A      0.467244
     106A      0.469274   107A      0.482355   108A      0.482760
     109A      0.487411   110A      0.488085   111A      0.489374
     112A      0.489879   113A      0.552833   114A      0.553331
     115A      0.556433   116A      0.560723   117A      0.569555
     118A      0.570235   119A      0.577697   120A      0.577850
     121A      0.595149   122A      0.595976   123A      0.600319
     124A      0.601454   125A      0.617261   126A      0.617630
     127A      0.637841   128A      0.638121   129A      0.653487
     130A      0.654262   131A      0.670352   132A      0.670782
     133A      0.672567   134A      0.673001   135A      0.679316
     136A      0.679869   137A      0.685253   138A      0.685476
     139A      0.715922   140A      0.716349   141A      0.726738
     142A      0.727713   143A      0.742415   144A      0.742831
     145A      0.763859   146A      0.764238   147A      0.768452
     148A      0.769023   149A      0.792072   150A      0.792515
     151A      0.794673   152A      0.795648   153A      0.810932
     154A      0.811272   155A      0.861387   156A      0.863196
     157A      0.872560   158A      0.873169   159A      0.886759
     160A      0.887461   161A      0.891061   162A      0.891665
     163A      0.955591   164A      0.955844   165A      0.978148
     166A      0.978406   167A      0.999528   168A      1.000032
     169A      1.011624   170A      1.012680   171A      1.018623
     172A      1.018927   173A      1.031804   174A      1.032530
     175A      1.078460   176A      1.078849   177A      1.085725
     178A      1.086004   179A      1.128094   180A      1.128867
     181A      1.141644   182A      1.142144   183A      1.150578
     184A      1.151744   185A      1.168336   186A      1.168654
     187A      1.218627   188A      1.218896   189A      1.261964
     190A      1.262416   191A      1.303438   192A      1.304942
     193A      1.386217   194A      1.386443   195A      1.399325
     196A      1.399691   197A      1.452318   198A      1.452807
     199A      1.504408   200A      1.504874   201A      1.519640
     202A      1.519910   203A      1.574795   204A      1.575368
     205A      1.575697   206A      1.576632   207A      1.597549
     208A      1.597971   209A      1.653354   210A      1.653634
     211A      1.672250   212A      1.673730   213A      1.706198
     214A      1.708210   215A      1.725670   216A      1.725851
     217A      1.783925   218A      1.784188   219A      1.800039
     220A      1.801215   221A      1.807991   222A      1.809421
     223A      1.865766   224A      1.867480   225A      1.882684
     226A      1.882922   227A      1.925575   228A      1.925803
     229A      1.966181   230A      1.966581   231A      2.023149
     232A      2.023699   233A      2.026498   234A      2.027451
     235A      2.074200   236A      2.074493   237A      2.108227
     238A      2.108624   239A      2.127946   240A      2.128363
     241A      2.137109   242A      2.137583   243A      2.169765
     244A      2.170769   245A      2.180036   246A      2.180300
     247A      2.268248   248A      2.268541   249A      2.276953
     250A      2.277709   251A      2.302027   252A      2.302520
     253A      2.333137   254A      2.333679   255A      2.418825
     256A      2.419648   257A      2.498125   258A      2.498372
     259A      2.515275   260A      2.515544   261A      2.546553
     262A      2.546752   263A      2.586971   264A      2.587307
     265A      2.634944   266A      2.635371   267A      2.735275
     268A      2.735774   269A      2.748221   270A      2.748530
     271A      2.768282   272A      2.768609   273A      2.795331
     274A      2.795674   275A      2.804645   276A      2.804985
     277A      2.838839   278A      2.839172   279A      2.868387
     280A      2.868631   281A      2.953905   282A      2.954317
     283A      2.982016   284A      2.982310   285A      3.052366
     286A      3.052727   287A      3.070988   288A      3.072042
     289A      3.200362   290A      3.200856   291A      3.209961
     292A      3.210280   293A      3.335980   294A      3.336242
     295A      3.355751   296A      3.356422   297A      3.519727
     298A      3.520057   299A      3.769467   300A      3.769780
     301A      4.110020   302A      4.111315

    Final Occupation by Irrep:
              A
    DOCC [    36 ]

  @DF-RHF Final Energy:  -449.68744788812927

   => Energetics <=

    Nuclear Repulsion Energy =            386.9225113385679720
    One-Electron Energy =               -1375.4568278251822449
    Two-Electron Energy =                 538.8468685984850026
    Total Energy =                       -449.6874478881292134

Computation Completed


Properties will be evaluated at   0.000000,   0.000000,   0.000000 [a0]

Properties computed using the SCF density matrix

  Nuclear Dipole Moment: [e a0]
     X:   222.7359      Y:   -75.4944      Z:   895.9671

  Electronic Dipole Moment: [e a0]
     X:  -222.7380      Y:    75.8201      Z:  -895.9693

  Dipole Moment: [e a0]
     X:    -0.0021      Y:     0.3258      Z:    -0.0022     Total:     0.3258

  Dipole Moment: [D]
     X:    -0.0054      Y:     0.8280      Z:    -0.0055     Total:     0.8280


*** tstop() called on ds1 at Tue Sep 14 17:03:40 2021
Module time:
	user time   =      27.49 seconds =       0.46 minutes
	system time =       0.79 seconds =       0.01 minutes
	total time  =          6 seconds =       0.10 minutes
Total time:
	user time   =      27.49 seconds =       0.46 minutes
	system time =       0.79 seconds =       0.01 minutes
	total time  =          6 seconds =       0.10 minutes

  //>>>>>>>>>>>>>>>>>>>>>>>>>>>>>>>>>>>//
  //            Monomer A HF           //
  //<<<<<<<<<<<<<<<<<<<<<<<<<<<<<<<<<<<//


*** tstart() called on ds1
*** at Tue Sep 14 17:03:40 2021

   => Loading Basis Set <=

    Name: AUG-CC-PVDZ
    Role: ORBITAL
    Keyword: BASIS
    atoms 1-2, 10-11 entry N          line   218 file /theoryfs2/ds/csargent/miniconda3/envs/cle/share/psi4/basis/aug-cc-pvdz.gbs
    atoms 3-6, 12-15 entry H          line    40 file /theoryfs2/ds/csargent/miniconda3/envs/cle/share/psi4/basis/aug-cc-pvdz.gbs
    atoms 7-9, 16-18 entry C          line   182 file /theoryfs2/ds/csargent/miniconda3/envs/cle/share/psi4/basis/aug-cc-pvdz.gbs


         ---------------------------------------------------------
                                   SCF
               by Justin Turney, Rob Parrish, Andy Simmonett
                          and Daniel G. A. Smith
                              RHF Reference
                        6 Threads,   6675 MiB Core
         ---------------------------------------------------------

  ==> Geometry <==

    Molecular point group: c1
    Full point group: C1

    Geometry (in Bohr), charge = 0, multiplicity = 1:

       Center              X                  Y                   Z               Mass
    ------------   -----------------  -----------------  -----------------  -----------------
         N           -4.293096210000    -3.068374310000     5.305162310000    14.003074004430
         N           -2.158473710000    -2.926272960000     1.720374480000    14.003074004430
         H           -0.025455870000    -6.359035750000     2.220464520000     1.007825032230
         H           -2.685669680000    -6.532602410000     6.614459540000     1.007825032230
         H           -4.743884230000    -0.006090060000     2.756159680000     1.007825032230
         H           -1.410455400000    -2.247231470000     0.000000000000     1.007825032230
         C           -1.437379910000    -5.075048480000     2.940658910000    12.000000000000
         C           -2.769007820000    -5.146099160000     5.135228800000    12.000000000000
         C           -3.859550360000    -1.777281980000     3.210934110000    12.000000000000
      Gh(N)          10.480204410000     2.006674170000    19.582813900000    14.003074004430
      Gh(N)           8.345581910000     2.148775530000    23.167601740000    14.003074004430
      Gh(H)           6.212564060000    -1.283987270000    22.667511700000     1.007825032230
      Gh(H)           8.872777880000    -1.457553920000    18.273516680000     1.007825032230
      Gh(H)          10.930992420000     5.068958420000    22.131816540000     1.007825032230
      Gh(H)           7.597563600000     2.827817010000    24.887976220000     1.007825032230
      Gh(C)           7.624488110000     0.000000000000    21.947317300000    12.000000000000
      Gh(C)           8.956116020000    -0.071050680000    19.752747410000    12.000000000000
      Gh(C)          10.046658560000     3.297766500000    21.677042100000    12.000000000000

  Running in c1 symmetry.

  Rotational constants: A =      0.02318  B =      0.00161  C =      0.00153 [cm^-1]
  Rotational constants: A =    694.91720  B =     48.39201  C =     45.85934 [MHz]
  Nuclear repulsion =  164.086695994184396

  Charge       = 0
  Multiplicity = 1
  Electrons    = 36
  Nalpha       = 18
  Nbeta        = 18

  ==> Algorithm <==

  SCF Algorithm Type is DF.
  DIIS enabled.
  MOM disabled.
  Fractional occupation disabled.
  Guess Type is SAD.
  Energy threshold   = 1.00e-10
  Density threshold  = 1.00e-10
  Integral threshold = 1.00e-12

  ==> Primary Basis <==

  Basis Set: AUG-CC-PVDZ
    Blend: AUG-CC-PVDZ
    Number of shells: 130
    Number of basis functions: 302
    Number of Cartesian functions: 322
    Spherical Harmonics?: true
    Max angular momentum: 2

   => Loading Basis Set <=

    Name: (AUG-CC-PVDZ AUX)
    Role: JKFIT
    Keyword: DF_BASIS_SCF
    atoms 1-2, 10-11 entry N          line   212 file /theoryfs2/ds/csargent/miniconda3/envs/cle/share/psi4/basis/aug-cc-pvdz-jkfit.gbs
    atoms 3-6, 12-15 entry H          line    70 file /theoryfs2/ds/csargent/miniconda3/envs/cle/share/psi4/basis/aug-cc-pvdz-jkfit.gbs
    atoms 7-9, 16-18 entry C          line   154 file /theoryfs2/ds/csargent/miniconda3/envs/cle/share/psi4/basis/aug-cc-pvdz-jkfit.gbs

  ==> Integral Setup <==

  ==> DiskDFJK: Density-Fitted J/K Matrices <==

    J tasked:                  Yes
    K tasked:                  Yes
    wK tasked:                  No
    OpenMP threads:              6
    Integrals threads:           6
    Memory [MiB]:             5006
    Algorithm:                Core
    Integral Cache:           LOAD
    Schwarz Cutoff:          1E-12
    Fitting Condition:       1E-10

   => Auxiliary Basis Set <=

  Basis Set: (AUG-CC-PVDZ AUX)
    Blend: AUG-CC-PVDZ-JKFIT
    Number of shells: 376
    Number of basis functions: 1116
    Number of Cartesian functions: 1290
    Spherical Harmonics?: true
    Max angular momentum: 3

  Minimum eigenvalue in the overlap matrix is 2.1482687481E-05.
  Reciprocal condition number of the overlap matrix is 1.8094583887E-06.
    Using symmetric orthogonalization.

  ==> Pre-Iterations <==

  SCF Guess: Superposition of Atomic Densities via on-the-fly atomic UHF (no occupation information).

   -------------------------
    Irrep   Nso     Nmo
   -------------------------
     A        302     302
   -------------------------
    Total     302     302
   -------------------------

  ==> Iterations <==

                           Total Energy        Delta E     RMS |[F,P]|

   @DF-RHF iter SAD:  -224.55857170910537   -2.24559e+02   0.00000e+00
   @DF-RHF iter   1:  -224.69806540534978   -1.39494e-01   1.63068e-03 DIIS
   @DF-RHF iter   2:  -224.80532138435814   -1.07256e-01   9.27384e-04 DIIS
   @DF-RHF iter   3:  -224.84168927710022   -3.63679e-02   1.74020e-04 DIIS
   @DF-RHF iter   4:  -224.84337454120717   -1.68526e-03   7.98975e-05 DIIS
   @DF-RHF iter   5:  -224.84367612481171   -3.01584e-04   1.26453e-05 DIIS
   @DF-RHF iter   6:  -224.84369346229371   -1.73375e-05   5.61880e-06 DIIS
   @DF-RHF iter   7:  -224.84369655053257   -3.08824e-06   2.19508e-06 DIIS
   @DF-RHF iter   8:  -224.84369728250655   -7.31974e-07   7.77606e-07 DIIS
   @DF-RHF iter   9:  -224.84369739330810   -1.10802e-07   1.87964e-07 DIIS
   @DF-RHF iter  10:  -224.84369739884420   -5.53609e-09   7.33121e-08 DIIS
   @DF-RHF iter  11:  -224.84369739967065   -8.26446e-10   3.26922e-08 DIIS
   @DF-RHF iter  12:  -224.84369739982262   -1.51971e-10   9.70896e-09 DIIS
   @DF-RHF iter  13:  -224.84369739983612   -1.35003e-11   3.58847e-09 DIIS
   @DF-RHF iter  14:  -224.84369739983788   -1.76215e-12   1.58280e-09 DIIS
   @DF-RHF iter  15:  -224.84369739983796   -8.52651e-14   5.27569e-10 DIIS
   @DF-RHF iter  16:  -224.84369739983808   -1.13687e-13   2.34523e-10 DIIS
   @DF-RHF iter  17:  -224.84369739983831   -2.27374e-13   4.71139e-11 DIIS
  Energy and wave function converged.


  ==> Post-Iterations <==

    Orbital Energies [Eh]
    ---------------------

    Doubly Occupied:

       1A    -15.637071     2A    -15.551216     3A    -11.300917
       4A    -11.263159     5A    -11.245652     6A     -1.352867
       7A     -1.169098     8A     -1.012098     9A     -0.824390
      10A     -0.803731    11A     -0.760666    12A     -0.610096
      13A     -0.603958    14A     -0.601922    15A     -0.570942
      16A     -0.435483    17A     -0.400464    18A     -0.320685

    Virtual:

      19A      0.023654    20A      0.025492    21A      0.038967
      22A      0.042352    23A      0.045190    24A      0.051794
      25A      0.061865    26A      0.069135    27A      0.078281
      28A      0.086332    29A      0.091092    30A      0.098958
      31A      0.101389    32A      0.119777    33A      0.122825
      34A      0.126186    35A      0.128326    36A      0.128517
      37A      0.129663    38A      0.133518    39A      0.133984
      40A      0.135554    41A      0.140137    42A      0.144133
      43A      0.156850    44A      0.158749    45A      0.159537
      46A      0.174477    47A      0.178279    48A      0.187408
      49A      0.194564    50A      0.209452    51A      0.210724
      52A      0.212048    53A      0.214631    54A      0.219961
      55A      0.223711    56A      0.224570    57A      0.233162
      58A      0.234684    59A      0.241496    60A      0.261676
      61A      0.267805    62A      0.273980    63A      0.279256
      64A      0.300959    65A      0.303294    66A      0.308007
      67A      0.314444    68A      0.321609    69A      0.338229
      70A      0.361414    71A      0.361882    72A      0.370705
      73A      0.377388    74A      0.380113    75A      0.388487
      76A      0.395004    77A      0.397302    78A      0.418018
      79A      0.428825    80A      0.429481    81A      0.437060
      82A      0.442370    83A      0.450601    84A      0.452518
      85A      0.454072    86A      0.466031    87A      0.472328
      88A      0.481230    89A      0.482600    90A      0.486533
      91A      0.488244    92A      0.519003    93A      0.522563
      94A      0.538043    95A      0.539921    96A      0.544818
      97A      0.551887    98A      0.556263    99A      0.559124
     100A      0.568462   101A      0.576525   102A      0.581183
     103A      0.589218   104A      0.594308   105A      0.599513
     106A      0.608442   107A      0.613654   108A      0.616148
     109A      0.620003   110A      0.636674   111A      0.641525
     112A      0.652560   113A      0.669307   114A      0.671542
     115A      0.678235   116A      0.679285   117A      0.684074
     118A      0.685497   119A      0.712696   120A      0.714863
     121A      0.725848   122A      0.738082   123A      0.741347
     124A      0.757719   125A      0.762728   126A      0.767452
     127A      0.791031   128A      0.793822   129A      0.800139
     130A      0.809752   131A      0.812155   132A      0.813888
     133A      0.825201   134A      0.838337   135A      0.860292
     136A      0.862501   137A      0.871564   138A      0.885811
     139A      0.888107   140A      0.890105   141A      0.911499
     142A      0.921301   143A      0.928534   144A      0.954370
     145A      0.970351   146A      0.976973   147A      0.993418
     148A      0.998618   149A      1.010877   150A      1.017148
     151A      1.017641   152A      1.030913   153A      1.061127
     154A      1.077399   155A      1.080261   156A      1.084564
     157A      1.105746   158A      1.117788   159A      1.127078
     160A      1.134106   161A      1.140560   162A      1.149896
     163A      1.167205   164A      1.172807   165A      1.175714
     166A      1.199134   167A      1.212418   168A      1.217478
     169A      1.260795   170A      1.279515   171A      1.292219
     172A      1.298568   173A      1.302802   174A      1.314268
     175A      1.319768   176A      1.349289   177A      1.385052
     178A      1.385734   179A      1.398205   180A      1.451168
     181A      1.496503   182A      1.503330   183A      1.517408
     184A      1.518439   185A      1.543013   186A      1.574162
     187A      1.574500   188A      1.596416   189A      1.652206
     190A      1.662562   191A      1.671645   192A      1.705478
     193A      1.724498   194A      1.782724   195A      1.799429
     196A      1.807351   197A      1.865388   198A      1.881525
     199A      1.924404   200A      1.965054   201A      2.022088
     202A      2.025540   203A      2.042110   204A      2.073026
     205A      2.102700   206A      2.107074   207A      2.121046
     208A      2.126777   209A      2.133331   210A      2.135988
     211A      2.151283   212A      2.169109   213A      2.178847
     214A      2.187143   215A      2.231570   216A      2.254572
     217A      2.267085   218A      2.276050   219A      2.300974
     220A      2.310889   221A      2.329128   222A      2.332162
     223A      2.378477   224A      2.407387   225A      2.415447
     226A      2.418255   227A      2.457640   228A      2.472614
     229A      2.495830   230A      2.496931   231A      2.514122
     232A      2.527531   233A      2.545350   234A      2.547238
     235A      2.578861   236A      2.585813   237A      2.601745
     238A      2.633779   239A      2.698516   240A      2.734169
     241A      2.747106   242A      2.767107   243A      2.792009
     244A      2.794180   245A      2.803503   246A      2.831533
     247A      2.837682   248A      2.867215   249A      2.897456
     250A      2.935304   251A      2.951343   252A      2.952771
     253A      2.980894   254A      3.045380   255A      3.051204
     256A      3.070048   257A      3.078233   258A      3.133619
     259A      3.161429   260A      3.184806   261A      3.199199
     262A      3.208798   263A      3.215353   264A      3.334816
     265A      3.342747   266A      3.354620   267A      3.356587
     268A      3.364868   269A      3.460546   270A      3.496209
     271A      3.518568   272A      3.571695   273A      3.610742
     274A      3.709070   275A      3.728602   276A      3.768316
     277A      3.780270   278A      3.800038   279A      3.859967
     280A      3.872515   281A      4.005824   282A      4.109217
     283A      4.214816   284A      4.638759   285A      4.640793
     286A      4.697901   287A      4.773623   288A      4.882401
     289A      5.023369   290A      5.256586   291A      5.375174
     292A      5.496759   293A      5.612379   294A      5.718337
     295A      5.885748   296A      6.091667   297A      6.199962
     298A     18.257644   299A     18.591930   300A     19.303049
     301A     25.313657   302A     25.455150

    Final Occupation by Irrep:
              A
    DOCC [    18 ]

  @DF-RHF Final Energy:  -224.84369739983831

   => Energetics <=

    Nuclear Repulsion Energy =            164.0866959941843959
    One-Electron Energy =                -628.9319568586638525
    Two-Electron Energy =                 240.0015634646411229
    Total Energy =                       -224.8436973998383053

Computation Completed


Properties will be evaluated at   0.000000,   0.000000,   0.000000 [a0]

Properties computed using the SCF density matrix

  Nuclear Dipole Moment: [e a0]
     X:  -102.4221      Y:  -129.0981      Z:   128.4908

  Electronic Dipole Moment: [e a0]
     X:   103.2259      Y:   129.2614      Z:  -129.8232

  Dipole Moment: [e a0]
     X:     0.8038      Y:     0.1633      Z:    -1.3324     Total:     1.5647

  Dipole Moment: [D]
     X:     2.0431      Y:     0.4150      Z:    -3.3867     Total:     3.9770


*** tstop() called on ds1 at Tue Sep 14 17:03:44 2021
Module time:
	user time   =      18.26 seconds =       0.30 minutes
	system time =       0.35 seconds =       0.01 minutes
	total time  =          4 seconds =       0.07 minutes
Total time:
	user time   =      45.91 seconds =       0.77 minutes
	system time =       1.15 seconds =       0.02 minutes
	total time  =         10 seconds =       0.17 minutes

  //>>>>>>>>>>>>>>>>>>>>>>>>>>>>>>>>>>>//
  //            Monomer B HF           //
  //<<<<<<<<<<<<<<<<<<<<<<<<<<<<<<<<<<<//


*** tstart() called on ds1
*** at Tue Sep 14 17:03:44 2021

   => Loading Basis Set <=

    Name: AUG-CC-PVDZ
    Role: ORBITAL
    Keyword: BASIS
    atoms 1-2, 10-11 entry N          line   218 file /theoryfs2/ds/csargent/miniconda3/envs/cle/share/psi4/basis/aug-cc-pvdz.gbs
    atoms 3-6, 12-15 entry H          line    40 file /theoryfs2/ds/csargent/miniconda3/envs/cle/share/psi4/basis/aug-cc-pvdz.gbs
    atoms 7-9, 16-18 entry C          line   182 file /theoryfs2/ds/csargent/miniconda3/envs/cle/share/psi4/basis/aug-cc-pvdz.gbs


         ---------------------------------------------------------
                                   SCF
               by Justin Turney, Rob Parrish, Andy Simmonett
                          and Daniel G. A. Smith
                              RHF Reference
                        6 Threads,   6675 MiB Core
         ---------------------------------------------------------

  ==> Geometry <==

    Molecular point group: c1
    Full point group: C1

    Geometry (in Bohr), charge = 0, multiplicity = 1:

       Center              X                  Y                   Z               Mass
    ------------   -----------------  -----------------  -----------------  -----------------
      Gh(N)          -4.293096210000    -3.068374310000     5.305162310000    14.003074004430
      Gh(N)          -2.158473710000    -2.926272960000     1.720374480000    14.003074004430
      Gh(H)          -0.025455870000    -6.359035750000     2.220464520000     1.007825032230
      Gh(H)          -2.685669680000    -6.532602410000     6.614459540000     1.007825032230
      Gh(H)          -4.743884230000    -0.006090060000     2.756159680000     1.007825032230
      Gh(H)          -1.410455400000    -2.247231470000     0.000000000000     1.007825032230
      Gh(C)          -1.437379910000    -5.075048480000     2.940658910000    12.000000000000
      Gh(C)          -2.769007820000    -5.146099160000     5.135228800000    12.000000000000
      Gh(C)          -3.859550360000    -1.777281980000     3.210934110000    12.000000000000
         N           10.480204410000     2.006674170000    19.582813900000    14.003074004430
         N            8.345581910000     2.148775530000    23.167601740000    14.003074004430
         H            6.212564060000    -1.283987270000    22.667511700000     1.007825032230
         H            8.872777880000    -1.457553920000    18.273516680000     1.007825032230
         H           10.930992420000     5.068958420000    22.131816540000     1.007825032230
         H            7.597563600000     2.827817010000    24.887976220000     1.007825032230
         C            7.624488110000     0.000000000000    21.947317300000    12.000000000000
         C            8.956116020000    -0.071050680000    19.752747410000    12.000000000000
         C           10.046658560000     3.297766500000    21.677042100000    12.000000000000

  Running in c1 symmetry.

  Rotational constants: A =      0.02318  B =      0.00161  C =      0.00153 [cm^-1]
  Rotational constants: A =    694.91720  B =     48.39201  C =     45.85934 [MHz]
  Nuclear repulsion =  164.086695851944768

  Charge       = 0
  Multiplicity = 1
  Electrons    = 36
  Nalpha       = 18
  Nbeta        = 18

  ==> Algorithm <==

  SCF Algorithm Type is DF.
  DIIS enabled.
  MOM disabled.
  Fractional occupation disabled.
  Guess Type is SAD.
  Energy threshold   = 1.00e-10
  Density threshold  = 1.00e-10
  Integral threshold = 1.00e-12

  ==> Primary Basis <==

  Basis Set: AUG-CC-PVDZ
    Blend: AUG-CC-PVDZ
    Number of shells: 130
    Number of basis functions: 302
    Number of Cartesian functions: 322
    Spherical Harmonics?: true
    Max angular momentum: 2

   => Loading Basis Set <=

    Name: (AUG-CC-PVDZ AUX)
    Role: JKFIT
    Keyword: DF_BASIS_SCF
    atoms 1-2, 10-11 entry N          line   212 file /theoryfs2/ds/csargent/miniconda3/envs/cle/share/psi4/basis/aug-cc-pvdz-jkfit.gbs
    atoms 3-6, 12-15 entry H          line    70 file /theoryfs2/ds/csargent/miniconda3/envs/cle/share/psi4/basis/aug-cc-pvdz-jkfit.gbs
    atoms 7-9, 16-18 entry C          line   154 file /theoryfs2/ds/csargent/miniconda3/envs/cle/share/psi4/basis/aug-cc-pvdz-jkfit.gbs

  ==> Integral Setup <==

  ==> DiskDFJK: Density-Fitted J/K Matrices <==

    J tasked:                  Yes
    K tasked:                  Yes
    wK tasked:                  No
    OpenMP threads:              6
    Integrals threads:           6
    Memory [MiB]:             5006
    Algorithm:                Core
    Integral Cache:           LOAD
    Schwarz Cutoff:          1E-12
    Fitting Condition:       1E-10

   => Auxiliary Basis Set <=

  Basis Set: (AUG-CC-PVDZ AUX)
    Blend: AUG-CC-PVDZ-JKFIT
    Number of shells: 376
    Number of basis functions: 1116
    Number of Cartesian functions: 1290
    Spherical Harmonics?: true
    Max angular momentum: 3

  Minimum eigenvalue in the overlap matrix is 2.1482687481E-05.
  Reciprocal condition number of the overlap matrix is 1.8094583887E-06.
    Using symmetric orthogonalization.

  ==> Pre-Iterations <==

  SCF Guess: Superposition of Atomic Densities via on-the-fly atomic UHF (no occupation information).

   -------------------------
    Irrep   Nso     Nmo
   -------------------------
     A        302     302
   -------------------------
    Total     302     302
   -------------------------

  ==> Iterations <==

                           Total Energy        Delta E     RMS |[F,P]|

   @DF-RHF iter SAD:  -224.55857169235952   -2.24559e+02   0.00000e+00
   @DF-RHF iter   1:  -224.69806502844082   -1.39493e-01   1.63068e-03 DIIS
   @DF-RHF iter   2:  -224.80532081893480   -1.07256e-01   9.27385e-04 DIIS
   @DF-RHF iter   3:  -224.84168876436769   -3.63679e-02   1.74020e-04 DIIS
   @DF-RHF iter   4:  -224.84337402008694   -1.68526e-03   7.98973e-05 DIIS
   @DF-RHF iter   5:  -224.84367560134768   -3.01581e-04   1.26452e-05 DIIS
   @DF-RHF iter   6:  -224.84369293841053   -1.73371e-05   5.61872e-06 DIIS
   @DF-RHF iter   7:  -224.84369602650062   -3.08809e-06   2.19504e-06 DIIS
   @DF-RHF iter   8:  -224.84369675842663   -7.31926e-07   7.77590e-07 DIIS
   @DF-RHF iter   9:  -224.84369686922190   -1.10795e-07   1.87961e-07 DIIS
   @DF-RHF iter  10:  -224.84369687475771   -5.53581e-09   7.33130e-08 DIIS
   @DF-RHF iter  11:  -224.84369687558399   -8.26276e-10   3.26917e-08 DIIS
   @DF-RHF iter  12:  -224.84369687573576   -1.51772e-10   9.70889e-09 DIIS
   @DF-RHF iter  13:  -224.84369687574883   -1.30740e-11   3.58842e-09 DIIS
   @DF-RHF iter  14:  -224.84369687575054   -1.70530e-12   1.58276e-09 DIIS
   @DF-RHF iter  15:  -224.84369687575108   -5.40012e-13   5.27559e-10 DIIS
   @DF-RHF iter  16:  -224.84369687575116   -8.52651e-14   2.34519e-10 DIIS
   @DF-RHF iter  17:  -224.84369687575119   -2.84217e-14   4.71141e-11 DIIS
  Energy and wave function converged.


  ==> Post-Iterations <==

    Orbital Energies [Eh]
    ---------------------

    Doubly Occupied:

       1A    -15.637071     2A    -15.551216     3A    -11.300916
       4A    -11.263159     5A    -11.245652     6A     -1.352867
       7A     -1.169098     8A     -1.012098     9A     -0.824389
      10A     -0.803731    11A     -0.760666    12A     -0.610096
      13A     -0.603958    14A     -0.601922    15A     -0.570942
      16A     -0.435483    17A     -0.400464    18A     -0.320685

    Virtual:

      19A      0.023180    20A      0.025451    21A      0.038739
      22A      0.042220    23A      0.045217    24A      0.051326
      25A      0.061330    26A      0.069027    27A      0.079111
      28A      0.087434    29A      0.089315    30A      0.098746
      31A      0.101408    32A      0.120506    33A      0.123400
      34A      0.125670    35A      0.127047    36A      0.128141
      37A      0.128898    38A      0.133155    39A      0.134604
      40A      0.135528    41A      0.139771    42A      0.142303
      43A      0.156470    44A      0.158173    45A      0.160385
      46A      0.175612    47A      0.178229    48A      0.187402
      49A      0.193757    50A      0.209551    51A      0.211330
      52A      0.211724    53A      0.216387    54A      0.220051
      55A      0.222409    56A      0.224474    57A      0.232396
      58A      0.234464    59A      0.241514    60A      0.261708
      61A      0.268141    62A      0.273465    63A      0.278607
      64A      0.300467    65A      0.301951    66A      0.307741
      67A      0.314459    68A      0.320794    69A      0.338681
      70A      0.361266    71A      0.362366    72A      0.370722
      73A      0.376335    74A      0.380743    75A      0.388446
      76A      0.394626    77A      0.397603    78A      0.418533
      79A      0.428626    80A      0.429220    81A      0.436838
      82A      0.443939    83A      0.450266    84A      0.452830
      85A      0.453780    86A      0.466461    87A      0.469863
      88A      0.481232    89A      0.482361    90A      0.486332
      91A      0.488309    92A      0.518843    93A      0.522285
      94A      0.537390    95A      0.539969    96A      0.544415
      97A      0.551796    98A      0.557194    99A      0.557370
     100A      0.568721   101A      0.576512   102A      0.580828
     103A      0.588962   104A      0.594301   105A      0.599139
     106A      0.608297   107A      0.613808   108A      0.616181
     109A      0.619772   110A      0.636547   111A      0.641145
     112A      0.652684   113A      0.669292   114A      0.671347
     115A      0.678351   116A      0.678990   117A      0.683857
     118A      0.685089   119A      0.712473   120A      0.714788
     121A      0.725904   122A      0.737497   123A      0.741319
     124A      0.757534   125A      0.762721   126A      0.767452
     127A      0.790936   128A      0.793560   129A      0.800773
     130A      0.809752   131A      0.812014   132A      0.813893
     133A      0.824859   134A      0.838039   135A      0.860510
     136A      0.862027   137A      0.871484   138A      0.885836
     139A      0.887954   140A      0.889868   141A      0.911108
     142A      0.921056   143A      0.928240   144A      0.954355
     145A      0.970148   146A      0.976986   147A      0.993178
     148A      0.998400   149A      1.010782   150A      1.017077
     151A      1.017525   152A      1.030762   153A      1.060386
     154A      1.077346   155A      1.080124   156A      1.084573
     157A      1.105104   158A      1.117450   159A      1.127198
     160A      1.134126   161A      1.140813   162A      1.149731
     163A      1.167168   164A      1.172456   165A      1.175574
     166A      1.198937   167A      1.211987   168A      1.217453
     169A      1.260843   170A      1.279317   171A      1.292033
     172A      1.298322   173A      1.303032   174A      1.313932
     175A      1.319545   176A      1.348911   177A      1.385035
     178A      1.385514   179A      1.398267   180A      1.451384
     181A      1.496282   182A      1.503406   183A      1.517241
     184A      1.518431   185A      1.542722   186A      1.574131
     187A      1.574445   188A      1.596411   189A      1.652174
     190A      1.662343   191A      1.671597   192A      1.706217
     193A      1.724491   194A      1.782654   195A      1.799223
     196A      1.807204   197A      1.865188   198A      1.881537
     199A      1.924395   200A      1.965091   201A      2.022073
     202A      2.025601   203A      2.041264   204A      2.073007
     205A      2.102481   206A      2.107097   207A      2.120874
     208A      2.126756   209A      2.133223   210A      2.136244
     211A      2.150950   212A      2.168721   213A      2.178826
     214A      2.186596   215A      2.231226   216A      2.254124
     217A      2.267092   218A      2.276044   219A      2.300989
     220A      2.310157   221A      2.328586   222A      2.332192
     223A      2.378751   224A      2.407264   225A      2.414954
     226A      2.417838   227A      2.457279   228A      2.472452
     229A      2.495544   230A      2.496943   231A      2.514110
     232A      2.527377   233A      2.545349   234A      2.547004
     235A      2.578389   236A      2.585795   237A      2.601383
     238A      2.633891   239A      2.698176   240A      2.734211
     241A      2.747040   242A      2.767116   243A      2.791935
     244A      2.794196   245A      2.803539   246A      2.831186
     247A      2.837737   248A      2.867232   249A      2.897315
     250A      2.934896   251A      2.951037   252A      2.952851
     253A      2.980870   254A      3.045217   255A      3.051212
     256A      3.070350   257A      3.077794   258A      3.133592
     259A      3.161235   260A      3.184522   261A      3.199445
     262A      3.208812   263A      3.214991   264A      3.334835
     265A      3.342461   266A      3.354822   267A      3.356480
     268A      3.364648   269A      3.460304   270A      3.496006
     271A      3.518605   272A      3.571374   273A      3.610611
     274A      3.708911   275A      3.728364   276A      3.768342
     277A      3.780058   278A      3.799875   279A      3.859578
     280A      3.872361   281A      4.005512   282A      4.109427
     283A      4.214484   284A      4.638345   285A      4.640440
     286A      4.697599   287A      4.773470   288A      4.881794
     289A      5.023049   290A      5.256295   291A      5.374835
     292A      5.496423   293A      5.612006   294A      5.718086
     295A      5.885549   296A      6.091431   297A      6.199770
     298A     18.257122   299A     18.591799   300A     19.302315
     301A     25.313447   302A     25.454980

    Final Occupation by Irrep:
              A
    DOCC [    18 ]

  @DF-RHF Final Energy:  -224.84369687575119

   => Energetics <=

    Nuclear Repulsion Energy =            164.0866958519447678
    One-Electron Energy =                -628.9319614471526165
    Two-Electron Energy =                 240.0015687194566283
    Total Energy =                       -224.8436968757511920

Computation Completed


Properties will be evaluated at   0.000000,   0.000000,   0.000000 [a0]

Properties computed using the SCF density matrix

  Nuclear Dipole Moment: [e a0]
     X:   325.1580      Y:    53.6037      Z:   767.4764

  Electronic Dipole Moment: [e a0]
     X:  -325.9618      Y:   -53.4404      Z:  -766.1439

  Dipole Moment: [e a0]
     X:    -0.8038      Y:     0.1633      Z:     1.3324     Total:     1.5646

  Dipole Moment: [D]
     X:    -2.0431      Y:     0.4150      Z:     3.3867     Total:     3.9769


*** tstop() called on ds1 at Tue Sep 14 17:03:48 2021
Module time:
	user time   =      19.16 seconds =       0.32 minutes
	system time =       0.39 seconds =       0.01 minutes
	total time  =          4 seconds =       0.07 minutes
Total time:
	user time   =      65.24 seconds =       1.09 minutes
	system time =       1.55 seconds =       0.03 minutes
	total time  =         14 seconds =       0.23 minutes
  Constructing Basis Sets for SAPT...

   => Loading Basis Set <=

    Name: (AUG-CC-PVDZ AUX)
    Role: RIFIT
    Keyword: DF_BASIS_SAPT
    atoms 1-2, 10-11 entry N          line   158 file /theoryfs2/ds/csargent/miniconda3/envs/cle/share/psi4/basis/aug-cc-pvdz-ri.gbs
    atoms 3-6, 12-15 entry H          line    30 file /theoryfs2/ds/csargent/miniconda3/envs/cle/share/psi4/basis/aug-cc-pvdz-ri.gbs
    atoms 7-9, 16-18 entry C          line   112 file /theoryfs2/ds/csargent/miniconda3/envs/cle/share/psi4/basis/aug-cc-pvdz-ri.gbs


  //>>>>>>>>>>>>>>>>>>>>>>>>>>>>>>>>>>>//
  //               SAPT0               //
  //<<<<<<<<<<<<<<<<<<<<<<<<<<<<<<<<<<<//


*** tstart() called on ds1
*** at Tue Sep 14 17:03:48 2021

        SAPT0
    Ed Hohenstein
     6 June 2009

      Orbital Information
  --------------------------
    NSO        =       302
    NMO        =       302
    NRI        =       904
    NOCC A     =        18
    NOCC B     =        18
    FOCC A     =         5
    FOCC B     =         5
    NVIR A     =       284
    NVIR B     =       284

    Elst10,r            =    -0.000052418238 [Eh]
    Exch10              =     0.000000001248 [Eh]
    Exch10 (S^2)        =     0.000000001248 [Eh]

    Iter     Energy [mEh]          dE [mEh]         Residual      Time [s]
       1      -0.00044399       0.000443994       0.203285136             0
       2      -0.00040654      -0.000037457       0.053940693             0
       3      -0.00043102       0.000024481       0.027004672             0
       4      -0.00044465       0.000013634       0.004698873             1
       5      -0.00044327      -0.000001383       0.001855194             1
       6      -0.00044304      -0.000000226       0.000746488             1
       7      -0.00044316       0.000000114       0.000285957             1
       8      -0.00044317       0.000000015       0.000116251             1
       9      -0.00044316      -0.000000009       0.000040181             1
      10      -0.00044316      -0.000000004       0.000009613             1
      11      -0.00044316       0.000000001       0.000003575             1
      12      -0.00044316       0.000000000       0.000001095             2
      13      -0.00044316      -0.000000000       0.000000340             2

    CHF Iterations converged


    Iter     Energy [mEh]          dE [mEh]         Residual      Time [s]
       1      -0.00075369       0.000753687       0.251018407             0
       2      -0.00071446      -0.000039228       0.071886205             0
       3      -0.00078011       0.000065651       0.030638432             0
       4      -0.00079368       0.000013574       0.008309473             0
       5      -0.00079212      -0.000001561       0.004653768             0
       6      -0.00079063      -0.000001494       0.001493737             1
       7      -0.00079096       0.000000333       0.000509531             1
       8      -0.00079102       0.000000057       0.000121202             1
       9      -0.00079099      -0.000000024       0.000045553             1
      10      -0.00079099      -0.000000006       0.000011071             1
      11      -0.00079099       0.000000003       0.000003195             1
      12      -0.00079099      -0.000000000       0.000001502             1
      13      -0.00079099      -0.000000000       0.000000466             1

    CHF Iterations converged

    Ind20,r (A<-B)      =    -0.000000443159 [Eh]
    Ind20,r (B<-A)      =    -0.000000790991 [Eh]
    Ind20,r             =    -0.000001234150 [Eh]
    Exch-Ind20,r (A<-B) =     0.000000001944 [Eh]
    Exch-Ind20,r (B<-A) =     0.000000000427 [Eh]
    Exch-Ind20,r        =     0.000000002371 [Eh]
    Disp20              =    -0.000011434485 [Eh]
    Disp20 (SS)         =    -0.000005717243 [Eh]
    Disp20 (OS)         =    -0.000005717243 [Eh]
    Exch-Disp20         =     0.000000000143 [Eh]
    Exch-Disp20 (SS)    =     0.000000000115 [Eh]
    Exch-Disp20 (OS)    =     0.000000000029 [Eh]

    SAPT Results
  --------------------------------------------------------------------------------------------------------
    Electrostatics                 -0.05241824 [mEh]      -0.03289294 [kcal/mol]      -0.13762406 [kJ/mol]
      Elst10,r                     -0.05241824 [mEh]      -0.03289294 [kcal/mol]      -0.13762406 [kJ/mol]

    Exchange                        0.00000125 [mEh]       0.00000078 [kcal/mol]       0.00000328 [kJ/mol]
      Exch10                        0.00000125 [mEh]       0.00000078 [kcal/mol]       0.00000328 [kJ/mol]
      Exch10(S^2)                   0.00000125 [mEh]       0.00000078 [kcal/mol]       0.00000328 [kJ/mol]

    Induction                      -0.00119555 [mEh]      -0.00075022 [kcal/mol]      -0.00313891 [kJ/mol]
      Ind20,r                      -0.00123415 [mEh]      -0.00077444 [kcal/mol]      -0.00324026 [kJ/mol]
      Exch-Ind20,r                  0.00000237 [mEh]       0.00000149 [kcal/mol]       0.00000622 [kJ/mol]
      delta HF,r (2)                0.00003623 [mEh]       0.00002273 [kcal/mol]       0.00009512 [kJ/mol]

    Dispersion                     -0.01143434 [mEh]      -0.00717516 [kcal/mol]      -0.03002086 [kJ/mol]
      Disp20                       -0.01143449 [mEh]      -0.00717525 [kcal/mol]      -0.03002124 [kJ/mol]
      Exch-Disp20                   0.00000014 [mEh]       0.00000009 [kcal/mol]       0.00000038 [kJ/mol]
      Disp20 (SS)                  -0.00571724 [mEh]      -0.00358762 [kcal/mol]      -0.01501062 [kJ/mol]
      Disp20 (OS)                  -0.00571724 [mEh]      -0.00358762 [kcal/mol]      -0.01501062 [kJ/mol]
      Exch-Disp20 (SS)              0.00000011 [mEh]       0.00000007 [kcal/mol]       0.00000030 [kJ/mol]
      Exch-Disp20 (OS)              0.00000003 [mEh]       0.00000002 [kcal/mol]       0.00000008 [kJ/mol]

  Total HF                         -0.05361254 [mEh]      -0.03364238 [kcal/mol]      -0.14075970 [kJ/mol]
  Total SAPT0                      -0.06504688 [mEh]      -0.04081753 [kcal/mol]      -0.17078056 [kJ/mol]

  Special recipe for scaled SAPT0 (see Manual):
    Electrostatics sSAPT0          -0.05241824 [mEh]      -0.03289294 [kcal/mol]      -0.13762406 [kJ/mol]
    Exchange sSAPT0                 0.00000125 [mEh]       0.00000078 [kcal/mol]       0.00000328 [kJ/mol]
    Induction sSAPT0               -0.00119555 [mEh]      -0.00075022 [kcal/mol]      -0.00313891 [kJ/mol]
    Dispersion sSAPT0              -0.01143434 [mEh]      -0.00717516 [kcal/mol]      -0.03002086 [kJ/mol]
  Total sSAPT0                     -0.06504688 [mEh]      -0.04081753 [kcal/mol]      -0.17078056 [kJ/mol]
  --------------------------------------------------------------------------------------------------------

*** tstop() called on ds1 at Tue Sep 14 17:03:58 2021
Module time:
	user time   =      47.65 seconds =       0.79 minutes
	system time =       4.25 seconds =       0.07 minutes
	total time  =         10 seconds =       0.17 minutes
Total time:
	user time   =     113.48 seconds =       1.89 minutes
	system time =       5.82 seconds =       0.10 minutes
	total time  =         24 seconds =       0.40 minutes


Warning! sapt0 does not have an associated derived wavefunction.The returned wavefunction is the dimer SCF wavefunction.


    Psi4 stopped on: Tuesday, 14 September 2021 05:03PM
    Psi4 wall time for execution: 0:00:24.15

*** Psi4 exiting successfully. Buy a developer a beer!
