
    -----------------------------------------------------------------------
          Psi4: An Open-Source Ab Initio Electronic Structure Package
                               Psi4 1.4rc3

                         Git: Rev {HEAD} 080dba6


    D. G. A. Smith, L. A. Burns, A. C. Simmonett, R. M. Parrish,
    M. C. Schieber, R. Galvelis, P. Kraus, H. Kruse, R. Di Remigio,
    A. Alenaizan, A. M. James, S. Lehtola, J. P. Misiewicz, M. Scheurer,
    R. A. Shaw, J. B. Schriber, Y. Xie, Z. L. Glick, D. A. Sirianni,
    J. S. O'Brien, J. M. Waldrop, A. Kumar, E. G. Hohenstein,
    B. P. Pritchard, B. R. Brooks, H. F. Schaefer III, A. Yu. Sokolov,
    K. Patkowski, A. E. DePrince III, U. Bozkaya, R. A. King,
    F. A. Evangelista, J. M. Turney, T. D. Crawford, C. D. Sherrill,
    J. Chem. Phys. 152(18) 184108 (2020). https://doi.org/10.1063/5.0006002

                            Additional Code Authors
    E. T. Seidl, C. L. Janssen, E. F. Valeev, M. L. Leininger,
    J. F. Gonthier, R. M. Richard, H. R. McAlexander, M. Saitow, X. Wang,
    P. Verma, and M. H. Lechner

             Previous Authors, Complete List of Code Contributors,
                       and Citations for Specific Modules
    https://github.com/psi4/psi4/blob/master/codemeta.json
    https://github.com/psi4/psi4/graphs/contributors
    http://psicode.org/psi4manual/master/introduction.html#citing-psifour

    -----------------------------------------------------------------------


    Psi4 started on: Tuesday, 14 September 2021 05:26PM

    Process ID: 3145
    Host:       ds1
    PSIDATADIR: /theoryfs2/ds/csargent/miniconda3/envs/cle/share/psi4
    Memory:     500.0 MiB
    Threads:    6

  ==> Input File <==

--------------------------------------------------------------------------
# PSI4 file produced by CrystaLattE

# Generated from:               imidazole.xyz
# Psithon input for N-mer:      2mer-0+330
# Number of atoms per monomer:  [9, 9]
# Number of replicas:           1
# COM priority:                 1.493955115661e-05
# Minimum COM separations:      21.486
# Separation priority:          2.327605534390e-05
# Minimum monomer separations:  18.534
# Cutoff priority:              6.645778180785e-07
# Nuclear repulsion energy:     360.09829678506304

memory 7 GB

molecule Dimer_0_330 {
  N           -4.29309621      -3.06837431       5.30516231
  N           -2.15847371      -2.92627296       1.72037448
  H           -0.02545587      -6.35903575       2.22046452
  H           -2.68566968      -6.53260241       6.61445954
  H           -4.74388423      -0.00609006       2.75615968
  H           -1.41045540      -2.24723147       0.00000000
  C           -1.43737991      -5.07504848       2.94065891
  C           -2.76900782      -5.14609916       5.13522880
  C           -3.85955036      -1.77728198       3.21093411
--
  N            9.59848081      34.42202384      -4.69340168
  N            7.46385831      34.27992248      -1.10861384
  H            5.33084047      37.71268527      -1.60870389
  H            7.99105428      37.88625193      -6.00269891
  H           10.04926883      31.35973958      -2.14439904
  H            6.71584001      33.60088099       0.61176063
  C            6.74276451      36.42869801      -2.32889828
  C            8.07439242      36.49974869      -4.52346817
  C            9.16493496      33.13093150      -2.59917348
units = au
no_com
no_reorient
}

set {
  e_convergence 10
  d_convergence 10
  scf_type df
  mp2_type df
  cc_type df
  freeze_core true
}

energy('sapt0/aug-cc-pvdz')

--------------------------------------------------------------------------

  Memory set to   6.519 GiB by Python driver.

Scratch directory: /scratch/csargent/psi4.31446.79897/

Scratch directory: /scratch/csargent/psi4.31446.79897/

  //>>>>>>>>>>>>>>>>>>>>>>>>>>>>>>>>>>>//
  //              Dimer HF             //
  //<<<<<<<<<<<<<<<<<<<<<<<<<<<<<<<<<<<//


*** tstart() called on ds1
*** at Tue Sep 14 17:26:39 2021

   => Loading Basis Set <=

    Name: AUG-CC-PVDZ
    Role: ORBITAL
    Keyword: BASIS
    atoms 1-2, 10-11 entry N          line   218 file /theoryfs2/ds/csargent/miniconda3/envs/cle/share/psi4/basis/aug-cc-pvdz.gbs
    atoms 3-6, 12-15 entry H          line    40 file /theoryfs2/ds/csargent/miniconda3/envs/cle/share/psi4/basis/aug-cc-pvdz.gbs
    atoms 7-9, 16-18 entry C          line   182 file /theoryfs2/ds/csargent/miniconda3/envs/cle/share/psi4/basis/aug-cc-pvdz.gbs


         ---------------------------------------------------------
                                   SCF
               by Justin Turney, Rob Parrish, Andy Simmonett
                          and Daniel G. A. Smith
                              RHF Reference
                        6 Threads,   6675 MiB Core
         ---------------------------------------------------------

  ==> Geometry <==

    Molecular point group: c1
    Full point group: C1

    Geometry (in Bohr), charge = 0, multiplicity = 1:

       Center              X                  Y                   Z               Mass
    ------------   -----------------  -----------------  -----------------  -----------------
         N           -4.293096210000    -3.068374310000     5.305162310000    14.003074004430
         N           -2.158473710000    -2.926272960000     1.720374480000    14.003074004430
         H           -0.025455870000    -6.359035750000     2.220464520000     1.007825032230
         H           -2.685669680000    -6.532602410000     6.614459540000     1.007825032230
         H           -4.743884230000    -0.006090060000     2.756159680000     1.007825032230
         H           -1.410455400000    -2.247231470000     0.000000000000     1.007825032230
         C           -1.437379910000    -5.075048480000     2.940658910000    12.000000000000
         C           -2.769007820000    -5.146099160000     5.135228800000    12.000000000000
         C           -3.859550360000    -1.777281980000     3.210934110000    12.000000000000
         N            9.598480810000    34.422023840000    -4.693401680000    14.003074004430
         N            7.463858310000    34.279922480000    -1.108613840000    14.003074004430
         H            5.330840470000    37.712685270000    -1.608703890000     1.007825032230
         H            7.991054280000    37.886251930000    -6.002698910000     1.007825032230
         H           10.049268830000    31.359739580000    -2.144399040000     1.007825032230
         H            6.715840010000    33.600880990000     0.611760630000     1.007825032230
         C            6.742764510000    36.428698010000    -2.328898280000    12.000000000000
         C            8.074392420000    36.499748690000    -4.523468170000    12.000000000000
         C            9.164934960000    33.130931500000    -2.599173480000    12.000000000000

  Running in c1 symmetry.

  Rotational constants: A =      0.04042  B =      0.00067  C =      0.00066 [cm^-1]
  Rotational constants: A =   1211.84730  B =     20.07674  C =     19.81112 [MHz]
  Nuclear repulsion =  360.098296702972732

  Charge       = 0
  Multiplicity = 1
  Electrons    = 72
  Nalpha       = 36
  Nbeta        = 36

  ==> Algorithm <==

  SCF Algorithm Type is DF.
  DIIS enabled.
  MOM disabled.
  Fractional occupation disabled.
  Guess Type is SAD.
  Energy threshold   = 1.00e-10
  Density threshold  = 1.00e-10
  Integral threshold = 1.00e-12

  ==> Primary Basis <==

  Basis Set: AUG-CC-PVDZ
    Blend: AUG-CC-PVDZ
    Number of shells: 130
    Number of basis functions: 302
    Number of Cartesian functions: 322
    Spherical Harmonics?: true
    Max angular momentum: 2

   => Loading Basis Set <=

    Name: (AUG-CC-PVDZ AUX)
    Role: JKFIT
    Keyword: DF_BASIS_SCF
    atoms 1-2, 10-11 entry N          line   212 file /theoryfs2/ds/csargent/miniconda3/envs/cle/share/psi4/basis/aug-cc-pvdz-jkfit.gbs
    atoms 3-6, 12-15 entry H          line    70 file /theoryfs2/ds/csargent/miniconda3/envs/cle/share/psi4/basis/aug-cc-pvdz-jkfit.gbs
    atoms 7-9, 16-18 entry C          line   154 file /theoryfs2/ds/csargent/miniconda3/envs/cle/share/psi4/basis/aug-cc-pvdz-jkfit.gbs

  ==> Integral Setup <==

  ==> DiskDFJK: Density-Fitted J/K Matrices <==

    J tasked:                  Yes
    K tasked:                  Yes
    wK tasked:                  No
    OpenMP threads:              6
    Integrals threads:           6
    Memory [MiB]:             5006
    Algorithm:                Core
    Integral Cache:           SAVE
    Schwarz Cutoff:          1E-12
    Fitting Condition:       1E-10

   => Auxiliary Basis Set <=

  Basis Set: (AUG-CC-PVDZ AUX)
    Blend: AUG-CC-PVDZ-JKFIT
    Number of shells: 376
    Number of basis functions: 1116
    Number of Cartesian functions: 1290
    Spherical Harmonics?: true
    Max angular momentum: 3

  Minimum eigenvalue in the overlap matrix is 2.1837063092E-05.
  Reciprocal condition number of the overlap matrix is 1.8394514215E-06.
    Using symmetric orthogonalization.

  ==> Pre-Iterations <==

  SCF Guess: Superposition of Atomic Densities via on-the-fly atomic UHF (no occupation information).

   -------------------------
    Irrep   Nso     Nmo
   -------------------------
     A        302     302
   -------------------------
    Total     302     302
   -------------------------

  ==> Iterations <==

                           Total Energy        Delta E     RMS |[F,P]|

   @DF-RHF iter SAD:  -449.11714337828005   -4.49117e+02   0.00000e+00
   @DF-RHF iter   1:  -449.39618651242699   -2.79043e-01   2.30600e-03 DIIS
   @DF-RHF iter   2:  -449.61068724184724   -2.14501e-01   1.31135e-03 DIIS
   @DF-RHF iter   3:  -449.68340171179585   -7.27145e-02   2.46034e-04 DIIS
   @DF-RHF iter   4:  -449.68677110025368   -3.36939e-03   1.12945e-04 DIIS
   @DF-RHF iter   5:  -449.68737374741926   -6.02647e-04   1.78810e-05 DIIS
   @DF-RHF iter   6:  -449.68740840969230   -3.46623e-05   7.94518e-06 DIIS
   @DF-RHF iter   7:  -449.68741458462000   -6.17493e-06   3.10435e-06 DIIS
   @DF-RHF iter   8:  -449.68741604891454   -1.46429e-06   1.09980e-06 DIIS
   @DF-RHF iter   9:  -449.68741627060058   -2.21686e-07   2.65961e-07 DIIS
   @DF-RHF iter  10:  -449.68741628167766   -1.10771e-08   1.03829e-07 DIIS
   @DF-RHF iter  11:  -449.68741628333447   -1.65682e-09   4.62457e-08 DIIS
   @DF-RHF iter  12:  -449.68741628363881   -3.04340e-10   1.37436e-08 DIIS
   @DF-RHF iter  13:  -449.68741628366524   -2.64322e-11   5.07717e-09 DIIS
   @DF-RHF iter  14:  -449.68741628366860   -3.35376e-12   2.24036e-09 DIIS
   @DF-RHF iter  15:  -449.68741628366894   -3.41061e-13   7.46296e-10 DIIS
   @DF-RHF iter  16:  -449.68741628366934   -3.97904e-13   3.31568e-10 DIIS
   @DF-RHF iter  17:  -449.68741628366899    3.41061e-13   6.66248e-11 DIIS
  Energy and wave function converged.


  ==> Post-Iterations <==

    Orbital Energies [Eh]
    ---------------------

    Doubly Occupied:

       1A    -15.637451     2A    -15.637451     3A    -15.551619
       4A    -15.551619     5A    -11.301314     6A    -11.301314
       7A    -11.263533     8A    -11.263533     9A    -11.246027
      10A    -11.246027    11A     -1.353252    12A     -1.353252
      13A     -1.169488    14A     -1.169488    15A     -1.012480
      16A     -1.012480    17A     -0.824773    18A     -0.824773
      19A     -0.804112    20A     -0.804112    21A     -0.761052
      22A     -0.761052    23A     -0.610479    24A     -0.610479
      25A     -0.604343    26A     -0.604343    27A     -0.602295
      28A     -0.602295    29A     -0.571332    30A     -0.571332
      31A     -0.435887    32A     -0.435887    33A     -0.400855
      34A     -0.400855    35A     -0.321066    36A     -0.321066

    Virtual:

      37A      0.025079    38A      0.025080    39A      0.041220
      40A      0.041220    41A      0.049613    42A      0.049613
      43A      0.061505    44A      0.061505    45A      0.088681
      46A      0.088681    47A      0.100976    48A      0.100976
      49A      0.120434    50A      0.120434    51A      0.125231
      52A      0.125231    53A      0.133165    54A      0.133165
      55A      0.133402    56A      0.133402    57A      0.140551
      58A      0.140551    59A      0.156191    60A      0.156191
      61A      0.158260    62A      0.158261    63A      0.171628
      64A      0.171628    65A      0.177809    66A      0.177809
      67A      0.186827    68A      0.186828    69A      0.211144
      70A      0.211144    71A      0.219880    72A      0.219880
      73A      0.231967    74A      0.231967    75A      0.241035
      76A      0.241035    77A      0.261240    78A      0.261240
      79A      0.267378    80A      0.267378    81A      0.277487
      82A      0.277487    83A      0.301354    84A      0.301354
      85A      0.314009    86A      0.314009    87A      0.337831
      88A      0.337831    89A      0.361140    90A      0.361140
      91A      0.370378    92A      0.370378    93A      0.379439
      94A      0.379439    95A      0.387912    96A      0.387912
      97A      0.396732    98A      0.396732    99A      0.416625
     100A      0.416625   101A      0.428601   102A      0.428601
     103A      0.451663   104A      0.451663   105A      0.465960
     106A      0.465960   107A      0.480858   108A      0.480858
     109A      0.485916   110A      0.485916   111A      0.487768
     112A      0.487768   113A      0.551320   114A      0.551320
     115A      0.556009   116A      0.556009   117A      0.567899
     118A      0.567899   119A      0.576077   120A      0.576077
     121A      0.593881   122A      0.593881   123A      0.598570
     124A      0.598570   125A      0.615691   126A      0.615691
     127A      0.636171   128A      0.636171   129A      0.652114
     130A      0.652114   131A      0.668903   132A      0.668903
     133A      0.670955   134A      0.670955   135A      0.677805
     136A      0.677805   137A      0.683507   138A      0.683507
     139A      0.714321   140A      0.714321   141A      0.725387
     142A      0.725387   143A      0.740851   144A      0.740851
     145A      0.762306   146A      0.762306   147A      0.767011
     148A      0.767011   149A      0.790554   150A      0.790554
     151A      0.793196   152A      0.793196   153A      0.809368
     154A      0.809368   155A      0.860015   156A      0.860015
     157A      0.871043   158A      0.871043   159A      0.885373
     160A      0.885373   161A      0.889461   162A      0.889461
     163A      0.953964   164A      0.953964   165A      0.976579
     166A      0.976579   167A      0.997966   168A      0.997966
     169A      1.010307   170A      1.010307   171A      1.017020
     172A      1.017020   173A      1.030283   174A      1.030283
     175A      1.076953   176A      1.076953   177A      1.084160
     178A      1.084160   179A      1.126603   180A      1.126603
     181A      1.140108   182A      1.140108   183A      1.149180
     184A      1.149180   185A      1.166785   186A      1.166785
     187A      1.217049   188A      1.217049   189A      1.260353
     190A      1.260353   191A      1.302156   192A      1.302156
     193A      1.384643   194A      1.384643   195A      1.397750
     196A      1.397750   197A      1.450755   198A      1.450755
     199A      1.502897   200A      1.502897   201A      1.518026
     202A      1.518026   203A      1.573750   204A      1.573750
     205A      1.573901   206A      1.573901   207A      1.596001
     208A      1.596001   209A      1.651773   210A      1.651773
     211A      1.671130   212A      1.671130   213A      1.704913
     214A      1.704913   215A      1.724065   216A      1.724065
     217A      1.782268   218A      1.782268   219A      1.798690
     220A      1.798690   221A      1.806684   222A      1.806684
     223A      1.864558   224A      1.864558   225A      1.881078
     226A      1.881078   227A      1.923996   228A      1.923996
     229A      1.964603   230A      1.964603   231A      2.021632
     232A      2.021632   233A      2.025052   234A      2.025052
     235A      2.072601   236A      2.072601   237A      2.106672
     238A      2.106672   239A      2.126383   240A      2.126383
     241A      2.135591   242A      2.135591   243A      2.168291
     244A      2.168291   245A      2.178433   246A      2.178433
     247A      2.266699   248A      2.266699   249A      2.275570
     250A      2.275570   251A      2.300526   252A      2.300526
     253A      2.331682   254A      2.331682   255A      2.417386
     256A      2.417386   257A      2.496539   258A      2.496539
     259A      2.513635   260A      2.513635   261A      2.544963
     262A      2.544963   263A      2.585365   264A      2.585365
     265A      2.633381   266A      2.633381   267A      2.733718
     268A      2.733718   269A      2.746633   270A      2.746633
     271A      2.766711   272A      2.766711   273A      2.793764
     274A      2.793764   275A      2.803053   276A      2.803053
     277A      2.837261   278A      2.837261   279A      2.866822
     280A      2.866822   281A      2.952355   282A      2.952355
     283A      2.980467   284A      2.980467   285A      3.050823
     286A      3.050823   287A      3.069528   288A      3.069528
     289A      3.198772   290A      3.198772   291A      3.208411
     292A      3.208411   293A      3.334426   294A      3.334426
     295A      3.354183   296A      3.354183   297A      3.518163
     298A      3.518163   299A      3.767903   300A      3.767903
     301A      4.108648   302A      4.108648

    Final Occupation by Irrep:
              A
    DOCC [    36 ]

  @DF-RHF Final Energy:  -449.68741628366899

   => Energetics <=

    Nuclear Repulsion Energy =            360.0982967029727320
    One-Electron Energy =               -1321.6859922170078789
    Two-Electron Energy =                 511.9002792303662090
    Total Energy =                       -449.6874162836689948

Computation Completed


Properties will be evaluated at   0.000000,   0.000000,   0.000000 [a0]

Properties computed using the SCF density matrix

  Nuclear Dipole Moment: [e a0]
     X:   190.9938      Y:  1128.7314      Z:    22.0234

  Electronic Dipole Moment: [e a0]
     X:  -190.9938      Y: -1128.7314      Z:   -22.0234

  Dipole Moment: [e a0]
     X:     0.0000      Y:    -0.0000      Z:    -0.0000     Total:     0.0000

  Dipole Moment: [D]
     X:     0.0000      Y:    -0.0000      Z:    -0.0000     Total:     0.0000


*** tstop() called on ds1 at Tue Sep 14 17:26:44 2021
Module time:
	user time   =      22.21 seconds =       0.37 minutes
	system time =       0.56 seconds =       0.01 minutes
	total time  =          5 seconds =       0.08 minutes
Total time:
	user time   =      22.21 seconds =       0.37 minutes
	system time =       0.56 seconds =       0.01 minutes
	total time  =          5 seconds =       0.08 minutes

  //>>>>>>>>>>>>>>>>>>>>>>>>>>>>>>>>>>>//
  //            Monomer A HF           //
  //<<<<<<<<<<<<<<<<<<<<<<<<<<<<<<<<<<<//


*** tstart() called on ds1
*** at Tue Sep 14 17:26:44 2021

   => Loading Basis Set <=

    Name: AUG-CC-PVDZ
    Role: ORBITAL
    Keyword: BASIS
    atoms 1-2, 10-11 entry N          line   218 file /theoryfs2/ds/csargent/miniconda3/envs/cle/share/psi4/basis/aug-cc-pvdz.gbs
    atoms 3-6, 12-15 entry H          line    40 file /theoryfs2/ds/csargent/miniconda3/envs/cle/share/psi4/basis/aug-cc-pvdz.gbs
    atoms 7-9, 16-18 entry C          line   182 file /theoryfs2/ds/csargent/miniconda3/envs/cle/share/psi4/basis/aug-cc-pvdz.gbs


         ---------------------------------------------------------
                                   SCF
               by Justin Turney, Rob Parrish, Andy Simmonett
                          and Daniel G. A. Smith
                              RHF Reference
                        6 Threads,   6675 MiB Core
         ---------------------------------------------------------

  ==> Geometry <==

    Molecular point group: c1
    Full point group: C1

    Geometry (in Bohr), charge = 0, multiplicity = 1:

       Center              X                  Y                   Z               Mass
    ------------   -----------------  -----------------  -----------------  -----------------
         N           -4.293096210000    -3.068374310000     5.305162310000    14.003074004430
         N           -2.158473710000    -2.926272960000     1.720374480000    14.003074004430
         H           -0.025455870000    -6.359035750000     2.220464520000     1.007825032230
         H           -2.685669680000    -6.532602410000     6.614459540000     1.007825032230
         H           -4.743884230000    -0.006090060000     2.756159680000     1.007825032230
         H           -1.410455400000    -2.247231470000     0.000000000000     1.007825032230
         C           -1.437379910000    -5.075048480000     2.940658910000    12.000000000000
         C           -2.769007820000    -5.146099160000     5.135228800000    12.000000000000
         C           -3.859550360000    -1.777281980000     3.210934110000    12.000000000000
      Gh(N)           9.598480810000    34.422023840000    -4.693401680000    14.003074004430
      Gh(N)           7.463858310000    34.279922480000    -1.108613840000    14.003074004430
      Gh(H)           5.330840470000    37.712685270000    -1.608703890000     1.007825032230
      Gh(H)           7.991054280000    37.886251930000    -6.002698910000     1.007825032230
      Gh(H)          10.049268830000    31.359739580000    -2.144399040000     1.007825032230
      Gh(H)           6.715840010000    33.600880990000     0.611760630000     1.007825032230
      Gh(C)           6.742764510000    36.428698010000    -2.328898280000    12.000000000000
      Gh(C)           8.074392420000    36.499748690000    -4.523468170000    12.000000000000
      Gh(C)           9.164934960000    33.130931500000    -2.599173480000    12.000000000000

  Running in c1 symmetry.

  Rotational constants: A =      0.04042  B =      0.00067  C =      0.00066 [cm^-1]
  Rotational constants: A =   1211.84730  B =     20.07674  C =     19.81112 [MHz]
  Nuclear repulsion =  164.086695994184396

  Charge       = 0
  Multiplicity = 1
  Electrons    = 36
  Nalpha       = 18
  Nbeta        = 18

  ==> Algorithm <==

  SCF Algorithm Type is DF.
  DIIS enabled.
  MOM disabled.
  Fractional occupation disabled.
  Guess Type is SAD.
  Energy threshold   = 1.00e-10
  Density threshold  = 1.00e-10
  Integral threshold = 1.00e-12

  ==> Primary Basis <==

  Basis Set: AUG-CC-PVDZ
    Blend: AUG-CC-PVDZ
    Number of shells: 130
    Number of basis functions: 302
    Number of Cartesian functions: 322
    Spherical Harmonics?: true
    Max angular momentum: 2

   => Loading Basis Set <=

    Name: (AUG-CC-PVDZ AUX)
    Role: JKFIT
    Keyword: DF_BASIS_SCF
    atoms 1-2, 10-11 entry N          line   212 file /theoryfs2/ds/csargent/miniconda3/envs/cle/share/psi4/basis/aug-cc-pvdz-jkfit.gbs
    atoms 3-6, 12-15 entry H          line    70 file /theoryfs2/ds/csargent/miniconda3/envs/cle/share/psi4/basis/aug-cc-pvdz-jkfit.gbs
    atoms 7-9, 16-18 entry C          line   154 file /theoryfs2/ds/csargent/miniconda3/envs/cle/share/psi4/basis/aug-cc-pvdz-jkfit.gbs

  ==> Integral Setup <==

  ==> DiskDFJK: Density-Fitted J/K Matrices <==

    J tasked:                  Yes
    K tasked:                  Yes
    wK tasked:                  No
    OpenMP threads:              6
    Integrals threads:           6
    Memory [MiB]:             5006
    Algorithm:                Core
    Integral Cache:           LOAD
    Schwarz Cutoff:          1E-12
    Fitting Condition:       1E-10

   => Auxiliary Basis Set <=

  Basis Set: (AUG-CC-PVDZ AUX)
    Blend: AUG-CC-PVDZ-JKFIT
    Number of shells: 376
    Number of basis functions: 1116
    Number of Cartesian functions: 1290
    Spherical Harmonics?: true
    Max angular momentum: 3

  Minimum eigenvalue in the overlap matrix is 2.1837063092E-05.
  Reciprocal condition number of the overlap matrix is 1.8394514215E-06.
    Using symmetric orthogonalization.

  ==> Pre-Iterations <==

  SCF Guess: Superposition of Atomic Densities via on-the-fly atomic UHF (no occupation information).

   -------------------------
    Irrep   Nso     Nmo
   -------------------------
     A        302     302
   -------------------------
    Total     302     302
   -------------------------

  ==> Iterations <==

                           Total Energy        Delta E     RMS |[F,P]|

   @DF-RHF iter SAD:  -224.55857169631832   -2.24559e+02   0.00000e+00
   @DF-RHF iter   1:  -224.69806464892065   -1.39493e-01   1.63067e-03 DIIS
   @DF-RHF iter   2:  -224.80532026749660   -1.07256e-01   9.27384e-04 DIIS
   @DF-RHF iter   3:  -224.84168817145593   -3.63679e-02   1.74019e-04 DIIS
   @DF-RHF iter   4:  -224.84337342352825   -1.68525e-03   7.98972e-05 DIIS
   @DF-RHF iter   5:  -224.84367500424145   -3.01581e-04   1.26452e-05 DIIS
   @DF-RHF iter   6:  -224.84369234127470   -1.73370e-05   5.61871e-06 DIIS
   @DF-RHF iter   7:  -224.84369542934414   -3.08807e-06   2.19503e-06 DIIS
   @DF-RHF iter   8:  -224.84369616126270   -7.31919e-07   7.77587e-07 DIIS
   @DF-RHF iter   9:  -224.84369627205663   -1.10794e-07   1.87961e-07 DIIS
   @DF-RHF iter  10:  -224.84369627759247   -5.53584e-09   7.33125e-08 DIIS
   @DF-RHF iter  11:  -224.84369627841846   -8.25992e-10   3.26918e-08 DIIS
   @DF-RHF iter  12:  -224.84369627857092   -1.52454e-10   9.70884e-09 DIIS
   @DF-RHF iter  13:  -224.84369627858399   -1.30740e-11   3.58840e-09 DIIS
   @DF-RHF iter  14:  -224.84369627858555   -1.56319e-12   1.58275e-09 DIIS
   @DF-RHF iter  15:  -224.84369627858561   -5.68434e-14   5.27556e-10 DIIS
   @DF-RHF iter  16:  -224.84369627858621   -5.96856e-13   2.34516e-10 DIIS
   @DF-RHF iter  17:  -224.84369627858570    5.11591e-13   4.71142e-11 DIIS
  Energy and wave function converged.


  ==> Post-Iterations <==

    Orbital Energies [Eh]
    ---------------------

    Doubly Occupied:

       1A    -15.637071     2A    -15.551216     3A    -11.300916
       4A    -11.263160     5A    -11.245653     6A     -1.352867
       7A     -1.169098     8A     -1.012098     9A     -0.824390
      10A     -0.803731    11A     -0.760666    12A     -0.610096
      13A     -0.603958    14A     -0.601922    15A     -0.570942
      16A     -0.435483    17A     -0.400464    18A     -0.320685

    Virtual:

      19A      0.022292    20A      0.025388    21A      0.039789
      22A      0.041580    23A      0.043368    24A      0.049997
      25A      0.061864    26A      0.067473    27A      0.076230
      28A      0.085879    29A      0.089096    30A      0.097286
      31A      0.101397    32A      0.120831    33A      0.124360
      34A      0.124777    35A      0.125577    36A      0.126541
      37A      0.126987    38A      0.133472    39A      0.133772
      40A      0.133773    41A      0.137886    42A      0.140942
      43A      0.156481    44A      0.156500    45A      0.158699
      46A      0.171988    47A      0.178189    48A      0.187224
      49A      0.191932    50A      0.207492    51A      0.209097
      52A      0.211559    53A      0.212192    54A      0.219971
      55A      0.220268    56A      0.222282    57A      0.232359
      58A      0.232839    59A      0.241408    60A      0.261605
      61A      0.267803    62A      0.271872    63A      0.277911
      64A      0.299069    65A      0.301746    66A      0.306175
      67A      0.314442    68A      0.318970    69A      0.338197
      70A      0.359866    71A      0.361488    72A      0.370745
      73A      0.375275    74A      0.379800    75A      0.388291
      76A      0.393153    77A      0.397097    78A      0.417031
      79A      0.427170    80A      0.429000    81A      0.434981
      82A      0.440091    83A      0.448775    84A      0.451896
      85A      0.452059    86A      0.466350    87A      0.467900
      88A      0.480760    89A      0.481229    90A      0.486283
      91A      0.488151    92A      0.517076    93A      0.520334
      94A      0.535697    95A      0.538005    96A      0.542877
      97A      0.551710    98A      0.555579    99A      0.556382
     100A      0.568280   101A      0.576474   102A      0.579153
     103A      0.587291   104A      0.594249   105A      0.598939
     106A      0.606211   107A      0.611780   108A      0.616080
     109A      0.618089   110A      0.636538   111A      0.639529
     112A      0.652504   113A      0.669282   114A      0.671337
     115A      0.677396   116A      0.678185   117A      0.683528
     118A      0.683874   119A      0.710918   120A      0.714698
     121A      0.725758   122A      0.735867   123A      0.741238
     124A      0.755883   125A      0.762698   126A      0.767400
     127A      0.790929   128A      0.793606   129A      0.797990
     130A      0.809747   131A      0.810241   132A      0.812192
     133A      0.823049   134A      0.836361   135A      0.859379
     136A      0.860398   137A      0.871425   138A      0.885765
     139A      0.886305   140A      0.889823   141A      0.909512
     142A      0.919396   143A      0.926660   144A      0.954351
     145A      0.968496   146A      0.976964   147A      0.991580
     148A      0.998360   149A      1.010706   150A      1.015203
     151A      1.017404   152A      1.030676   153A      1.058786
     154A      1.077353   155A      1.078385   156A      1.084552
     157A      1.103421   158A      1.115797   159A      1.126983
     160A      1.132256   161A      1.140497   162A      1.149565
     163A      1.167170   164A      1.170662   165A      1.173825
     166A      1.197324   167A      1.210352   168A      1.217445
     169A      1.260721   170A      1.277786   171A      1.290406
     172A      1.296753   173A      1.302539   174A      1.312334
     175A      1.317883   176A      1.347344   177A      1.383893
     178A      1.385028   179A      1.398145   180A      1.451143
     181A      1.494698   182A      1.503288   183A      1.515612
     184A      1.518410   185A      1.541130   186A      1.574127
     187A      1.574285   188A      1.596381   189A      1.652159
     190A      1.660728   191A      1.671505   192A      1.705286
     193A      1.724477   194A      1.782643   195A      1.799067
     196A      1.807063   197A      1.864950   198A      1.881477
     199A      1.924391   200A      1.964987   201A      2.022005
     202A      2.025429   203A      2.039499   204A      2.072981
     205A      2.100858   206A      2.107054   207A      2.119230
     208A      2.126759   209A      2.131199   210A      2.135965
     211A      2.149323   212A      2.168670   213A      2.178815
     214A      2.184964   215A      2.229586   216A      2.252591
     217A      2.267082   218A      2.275963   219A      2.300924
     220A      2.308530   221A      2.327010   222A      2.332072
     223A      2.376673   224A      2.405515   225A      2.413269
     226A      2.417758   227A      2.455645   228A      2.470711
     229A      2.493827   230A      2.496919   231A      2.514025
     232A      2.525745   233A      2.545345   234A      2.545355
     235A      2.576792   236A      2.585743   237A      2.599793
     238A      2.633765   239A      2.696176   240A      2.734093
     241A      2.747025   242A      2.767089   243A      2.790277
     244A      2.794149   245A      2.803444   246A      2.828808
     247A      2.837641   248A      2.867213   249A      2.895708
     250A      2.933256   251A      2.949394   252A      2.952738
     253A      2.980862   254A      3.043474   255A      3.051201
     256A      3.069910   257A      3.076176   258A      3.131874
     259A      3.159616   260A      3.182938   261A      3.199163
     262A      3.208795   263A      3.213374   264A      3.334816
     265A      3.340852   266A      3.354572   267A      3.354749
     268A      3.362909   269A      3.458670   270A      3.494436
     271A      3.518552   272A      3.569617   273A      3.608910
     274A      3.707255   275A      3.726737   276A      3.768294
     277A      3.778405   278A      3.798215   279A      3.857972
     280A      3.870732   281A      4.003895   282A      4.109022
     283A      4.212776   284A      4.636774   285A      4.638828
     286A      4.695995   287A      4.771826   288A      4.880107
     289A      5.021445   290A      5.254694   291A      5.373215
     292A      5.494849   293A      5.610419   294A      5.716326
     295A      5.883946   296A      6.089745   297A      6.198185
     298A     18.255532   299A     18.590134   300A     19.300492
     301A     25.311933   302A     25.453315

    Final Occupation by Irrep:
              A
    DOCC [    18 ]

  @DF-RHF Final Energy:  -224.84369627858570

   => Energetics <=

    Nuclear Repulsion Energy =            164.0866959941843959
    One-Electron Energy =                -628.9319562975595090
    Two-Electron Energy =                 240.0015640247893884
    Total Energy =                       -224.8436962785856963

Computation Completed


Properties will be evaluated at   0.000000,   0.000000,   0.000000 [a0]

Properties computed using the SCF density matrix

  Nuclear Dipole Moment: [e a0]
     X:  -102.4221      Y:  -129.0981      Z:   128.4908

  Electronic Dipole Moment: [e a0]
     X:   103.2259      Y:   129.2613      Z:  -129.8232

  Dipole Moment: [e a0]
     X:     0.8038      Y:     0.1633      Z:    -1.3324     Total:     1.5646

  Dipole Moment: [D]
     X:     2.0431      Y:     0.4150      Z:    -3.3867     Total:     3.9769


*** tstop() called on ds1 at Tue Sep 14 17:26:47 2021
Module time:
	user time   =      16.15 seconds =       0.27 minutes
	system time =       0.34 seconds =       0.01 minutes
	total time  =          3 seconds =       0.05 minutes
Total time:
	user time   =      38.38 seconds =       0.64 minutes
	system time =       0.90 seconds =       0.02 minutes
	total time  =          8 seconds =       0.13 minutes

  //>>>>>>>>>>>>>>>>>>>>>>>>>>>>>>>>>>>//
  //            Monomer B HF           //
  //<<<<<<<<<<<<<<<<<<<<<<<<<<<<<<<<<<<//


*** tstart() called on ds1
*** at Tue Sep 14 17:26:47 2021

   => Loading Basis Set <=

    Name: AUG-CC-PVDZ
    Role: ORBITAL
    Keyword: BASIS
    atoms 1-2, 10-11 entry N          line   218 file /theoryfs2/ds/csargent/miniconda3/envs/cle/share/psi4/basis/aug-cc-pvdz.gbs
    atoms 3-6, 12-15 entry H          line    40 file /theoryfs2/ds/csargent/miniconda3/envs/cle/share/psi4/basis/aug-cc-pvdz.gbs
    atoms 7-9, 16-18 entry C          line   182 file /theoryfs2/ds/csargent/miniconda3/envs/cle/share/psi4/basis/aug-cc-pvdz.gbs


         ---------------------------------------------------------
                                   SCF
               by Justin Turney, Rob Parrish, Andy Simmonett
                          and Daniel G. A. Smith
                              RHF Reference
                        6 Threads,   6675 MiB Core
         ---------------------------------------------------------

  ==> Geometry <==

    Molecular point group: c1
    Full point group: C1

    Geometry (in Bohr), charge = 0, multiplicity = 1:

       Center              X                  Y                   Z               Mass
    ------------   -----------------  -----------------  -----------------  -----------------
      Gh(N)          -4.293096210000    -3.068374310000     5.305162310000    14.003074004430
      Gh(N)          -2.158473710000    -2.926272960000     1.720374480000    14.003074004430
      Gh(H)          -0.025455870000    -6.359035750000     2.220464520000     1.007825032230
      Gh(H)          -2.685669680000    -6.532602410000     6.614459540000     1.007825032230
      Gh(H)          -4.743884230000    -0.006090060000     2.756159680000     1.007825032230
      Gh(H)          -1.410455400000    -2.247231470000     0.000000000000     1.007825032230
      Gh(C)          -1.437379910000    -5.075048480000     2.940658910000    12.000000000000
      Gh(C)          -2.769007820000    -5.146099160000     5.135228800000    12.000000000000
      Gh(C)          -3.859550360000    -1.777281980000     3.210934110000    12.000000000000
         N            9.598480810000    34.422023840000    -4.693401680000    14.003074004430
         N            7.463858310000    34.279922480000    -1.108613840000    14.003074004430
         H            5.330840470000    37.712685270000    -1.608703890000     1.007825032230
         H            7.991054280000    37.886251930000    -6.002698910000     1.007825032230
         H           10.049268830000    31.359739580000    -2.144399040000     1.007825032230
         H            6.715840010000    33.600880990000     0.611760630000     1.007825032230
         C            6.742764510000    36.428698010000    -2.328898280000    12.000000000000
         C            8.074392420000    36.499748690000    -4.523468170000    12.000000000000
         C            9.164934960000    33.130931500000    -2.599173480000    12.000000000000

  Running in c1 symmetry.

  Rotational constants: A =      0.04042  B =      0.00067  C =      0.00066 [cm^-1]
  Rotational constants: A =   1211.84730  B =     20.07674  C =     19.81112 [MHz]
  Nuclear repulsion =  164.086695776448693

  Charge       = 0
  Multiplicity = 1
  Electrons    = 36
  Nalpha       = 18
  Nbeta        = 18

  ==> Algorithm <==

  SCF Algorithm Type is DF.
  DIIS enabled.
  MOM disabled.
  Fractional occupation disabled.
  Guess Type is SAD.
  Energy threshold   = 1.00e-10
  Density threshold  = 1.00e-10
  Integral threshold = 1.00e-12

  ==> Primary Basis <==

  Basis Set: AUG-CC-PVDZ
    Blend: AUG-CC-PVDZ
    Number of shells: 130
    Number of basis functions: 302
    Number of Cartesian functions: 322
    Spherical Harmonics?: true
    Max angular momentum: 2

   => Loading Basis Set <=

    Name: (AUG-CC-PVDZ AUX)
    Role: JKFIT
    Keyword: DF_BASIS_SCF
    atoms 1-2, 10-11 entry N          line   212 file /theoryfs2/ds/csargent/miniconda3/envs/cle/share/psi4/basis/aug-cc-pvdz-jkfit.gbs
    atoms 3-6, 12-15 entry H          line    70 file /theoryfs2/ds/csargent/miniconda3/envs/cle/share/psi4/basis/aug-cc-pvdz-jkfit.gbs
    atoms 7-9, 16-18 entry C          line   154 file /theoryfs2/ds/csargent/miniconda3/envs/cle/share/psi4/basis/aug-cc-pvdz-jkfit.gbs

  ==> Integral Setup <==

  ==> DiskDFJK: Density-Fitted J/K Matrices <==

    J tasked:                  Yes
    K tasked:                  Yes
    wK tasked:                  No
    OpenMP threads:              6
    Integrals threads:           6
    Memory [MiB]:             5006
    Algorithm:                Core
    Integral Cache:           LOAD
    Schwarz Cutoff:          1E-12
    Fitting Condition:       1E-10

   => Auxiliary Basis Set <=

  Basis Set: (AUG-CC-PVDZ AUX)
    Blend: AUG-CC-PVDZ-JKFIT
    Number of shells: 376
    Number of basis functions: 1116
    Number of Cartesian functions: 1290
    Spherical Harmonics?: true
    Max angular momentum: 3

  Minimum eigenvalue in the overlap matrix is 2.1837063092E-05.
  Reciprocal condition number of the overlap matrix is 1.8394514215E-06.
    Using symmetric orthogonalization.

  ==> Pre-Iterations <==

  SCF Guess: Superposition of Atomic Densities via on-the-fly atomic UHF (no occupation information).

   -------------------------
    Irrep   Nso     Nmo
   -------------------------
     A        302     302
   -------------------------
    Total     302     302
   -------------------------

  ==> Iterations <==

                           Total Energy        Delta E     RMS |[F,P]|

   @DF-RHF iter SAD:  -224.55857167573782   -2.24559e+02   0.00000e+00
   @DF-RHF iter   1:  -224.69806465030067   -1.39493e-01   1.63067e-03 DIIS
   @DF-RHF iter   2:  -224.80532026802521   -1.07256e-01   9.27384e-04 DIIS
   @DF-RHF iter   3:  -224.84168817177689   -3.63679e-02   1.74019e-04 DIIS
   @DF-RHF iter   4:  -224.84337342386650   -1.68525e-03   7.98972e-05 DIIS
   @DF-RHF iter   5:  -224.84367500458271   -3.01581e-04   1.26452e-05 DIIS
   @DF-RHF iter   6:  -224.84369234161562   -1.73370e-05   5.61871e-06 DIIS
   @DF-RHF iter   7:  -224.84369542968545   -3.08807e-06   2.19503e-06 DIIS
   @DF-RHF iter   8:  -224.84369616160316   -7.31918e-07   7.77587e-07 DIIS
   @DF-RHF iter   9:  -224.84369627239727   -1.10794e-07   1.87961e-07 DIIS
   @DF-RHF iter  10:  -224.84369627793325   -5.53598e-09   7.33125e-08 DIIS
   @DF-RHF iter  11:  -224.84369627875955   -8.26304e-10   3.26918e-08 DIIS
   @DF-RHF iter  12:  -224.84369627891158   -1.52028e-10   9.70884e-09 DIIS
   @DF-RHF iter  13:  -224.84369627892471   -1.31308e-11   3.58840e-09 DIIS
   @DF-RHF iter  14:  -224.84369627892647   -1.76215e-12   1.58275e-09 DIIS
   @DF-RHF iter  15:  -224.84369627892664   -1.70530e-13   5.27556e-10 DIIS
   @DF-RHF iter  16:  -224.84369627892676   -1.13687e-13   2.34517e-10 DIIS
   @DF-RHF iter  17:  -224.84369627892698   -2.27374e-13   4.71138e-11 DIIS
  Energy and wave function converged.


  ==> Post-Iterations <==

    Orbital Energies [Eh]
    ---------------------

    Doubly Occupied:

       1A    -15.637071     2A    -15.551216     3A    -11.300916
       4A    -11.263160     5A    -11.245653     6A     -1.352867
       7A     -1.169098     8A     -1.012098     9A     -0.824390
      10A     -0.803731    11A     -0.760666    12A     -0.610096
      13A     -0.603958    14A     -0.601922    15A     -0.570942
      16A     -0.435483    17A     -0.400464    18A     -0.320685

    Virtual:

      19A      0.022292    20A      0.025388    21A      0.039789
      22A      0.041580    23A      0.043368    24A      0.049997
      25A      0.061864    26A      0.067473    27A      0.076230
      28A      0.085879    29A      0.089096    30A      0.097286
      31A      0.101397    32A      0.120831    33A      0.124360
      34A      0.124777    35A      0.125577    36A      0.126541
      37A      0.126987    38A      0.133472    39A      0.133772
      40A      0.133773    41A      0.137886    42A      0.140942
      43A      0.156481    44A      0.156500    45A      0.158699
      46A      0.171988    47A      0.178189    48A      0.187224
      49A      0.191932    50A      0.207492    51A      0.209097
      52A      0.211559    53A      0.212192    54A      0.219971
      55A      0.220268    56A      0.222282    57A      0.232359
      58A      0.232839    59A      0.241408    60A      0.261605
      61A      0.267803    62A      0.271872    63A      0.277911
      64A      0.299069    65A      0.301746    66A      0.306175
      67A      0.314442    68A      0.318970    69A      0.338197
      70A      0.359866    71A      0.361488    72A      0.370745
      73A      0.375275    74A      0.379800    75A      0.388291
      76A      0.393153    77A      0.397097    78A      0.417031
      79A      0.427170    80A      0.429000    81A      0.434981
      82A      0.440091    83A      0.448775    84A      0.451896
      85A      0.452059    86A      0.466350    87A      0.467900
      88A      0.480760    89A      0.481229    90A      0.486283
      91A      0.488151    92A      0.517076    93A      0.520334
      94A      0.535697    95A      0.538005    96A      0.542877
      97A      0.551710    98A      0.555579    99A      0.556382
     100A      0.568280   101A      0.576474   102A      0.579153
     103A      0.587291   104A      0.594249   105A      0.598939
     106A      0.606211   107A      0.611780   108A      0.616080
     109A      0.618089   110A      0.636538   111A      0.639529
     112A      0.652504   113A      0.669282   114A      0.671337
     115A      0.677396   116A      0.678185   117A      0.683528
     118A      0.683874   119A      0.710918   120A      0.714698
     121A      0.725758   122A      0.735867   123A      0.741238
     124A      0.755883   125A      0.762698   126A      0.767400
     127A      0.790929   128A      0.793606   129A      0.797990
     130A      0.809747   131A      0.810241   132A      0.812192
     133A      0.823049   134A      0.836361   135A      0.859379
     136A      0.860398   137A      0.871425   138A      0.885765
     139A      0.886305   140A      0.889823   141A      0.909512
     142A      0.919396   143A      0.926660   144A      0.954351
     145A      0.968496   146A      0.976964   147A      0.991580
     148A      0.998360   149A      1.010706   150A      1.015203
     151A      1.017404   152A      1.030676   153A      1.058786
     154A      1.077353   155A      1.078385   156A      1.084552
     157A      1.103421   158A      1.115797   159A      1.126983
     160A      1.132256   161A      1.140497   162A      1.149565
     163A      1.167170   164A      1.170662   165A      1.173825
     166A      1.197324   167A      1.210352   168A      1.217445
     169A      1.260721   170A      1.277786   171A      1.290406
     172A      1.296753   173A      1.302539   174A      1.312334
     175A      1.317883   176A      1.347344   177A      1.383893
     178A      1.385028   179A      1.398145   180A      1.451143
     181A      1.494698   182A      1.503288   183A      1.515612
     184A      1.518410   185A      1.541130   186A      1.574127
     187A      1.574285   188A      1.596381   189A      1.652159
     190A      1.660728   191A      1.671505   192A      1.705286
     193A      1.724477   194A      1.782643   195A      1.799067
     196A      1.807063   197A      1.864950   198A      1.881477
     199A      1.924391   200A      1.964987   201A      2.022005
     202A      2.025429   203A      2.039499   204A      2.072981
     205A      2.100858   206A      2.107054   207A      2.119230
     208A      2.126759   209A      2.131199   210A      2.135965
     211A      2.149323   212A      2.168670   213A      2.178815
     214A      2.184964   215A      2.229586   216A      2.252591
     217A      2.267082   218A      2.275963   219A      2.300924
     220A      2.308530   221A      2.327010   222A      2.332072
     223A      2.376673   224A      2.405515   225A      2.413269
     226A      2.417758   227A      2.455645   228A      2.470711
     229A      2.493827   230A      2.496919   231A      2.514025
     232A      2.525745   233A      2.545345   234A      2.545355
     235A      2.576792   236A      2.585743   237A      2.599793
     238A      2.633765   239A      2.696176   240A      2.734093
     241A      2.747025   242A      2.767089   243A      2.790277
     244A      2.794149   245A      2.803444   246A      2.828808
     247A      2.837641   248A      2.867213   249A      2.895708
     250A      2.933256   251A      2.949394   252A      2.952738
     253A      2.980862   254A      3.043474   255A      3.051201
     256A      3.069910   257A      3.076176   258A      3.131874
     259A      3.159616   260A      3.182938   261A      3.199163
     262A      3.208795   263A      3.213374   264A      3.334816
     265A      3.340852   266A      3.354572   267A      3.354749
     268A      3.362909   269A      3.458670   270A      3.494436
     271A      3.518552   272A      3.569617   273A      3.608910
     274A      3.707255   275A      3.726737   276A      3.768294
     277A      3.778405   278A      3.798215   279A      3.857972
     280A      3.870732   281A      4.003895   282A      4.109022
     283A      4.212776   284A      4.636774   285A      4.638828
     286A      4.695995   287A      4.771826   288A      4.880107
     289A      5.021445   290A      5.254694   291A      5.373215
     292A      5.494849   293A      5.610419   294A      5.716326
     295A      5.883946   296A      6.089745   297A      6.198185
     298A     18.255532   299A     18.590134   300A     19.300492
     301A     25.311933   302A     25.453315

    Final Occupation by Irrep:
              A
    DOCC [    18 ]

  @DF-RHF Final Energy:  -224.84369627892698

   => Energetics <=

    Nuclear Repulsion Energy =            164.0866957764486926
    One-Electron Energy =                -628.9319558655449782
    Two-Electron Energy =                 240.0015638101693298
    Total Energy =                       -224.8436962789269842

Computation Completed


Properties will be evaluated at   0.000000,   0.000000,   0.000000 [a0]

Properties computed using the SCF density matrix

  Nuclear Dipole Moment: [e a0]
     X:   293.4159      Y:  1257.8295      Z:  -106.4674

  Electronic Dipole Moment: [e a0]
     X:  -294.2197      Y: -1257.9927      Z:   107.7998

  Dipole Moment: [e a0]
     X:    -0.8038      Y:    -0.1633      Z:     1.3324     Total:     1.5646

  Dipole Moment: [D]
     X:    -2.0431      Y:    -0.4150      Z:     3.3867     Total:     3.9769


*** tstop() called on ds1 at Tue Sep 14 17:26:51 2021
Module time:
	user time   =      15.94 seconds =       0.27 minutes
	system time =       0.34 seconds =       0.01 minutes
	total time  =          4 seconds =       0.07 minutes
Total time:
	user time   =      54.48 seconds =       0.91 minutes
	system time =       1.25 seconds =       0.02 minutes
	total time  =         12 seconds =       0.20 minutes
  Constructing Basis Sets for SAPT...

   => Loading Basis Set <=

    Name: (AUG-CC-PVDZ AUX)
    Role: RIFIT
    Keyword: DF_BASIS_SAPT
    atoms 1-2, 10-11 entry N          line   158 file /theoryfs2/ds/csargent/miniconda3/envs/cle/share/psi4/basis/aug-cc-pvdz-ri.gbs
    atoms 3-6, 12-15 entry H          line    30 file /theoryfs2/ds/csargent/miniconda3/envs/cle/share/psi4/basis/aug-cc-pvdz-ri.gbs
    atoms 7-9, 16-18 entry C          line   112 file /theoryfs2/ds/csargent/miniconda3/envs/cle/share/psi4/basis/aug-cc-pvdz-ri.gbs


  //>>>>>>>>>>>>>>>>>>>>>>>>>>>>>>>>>>>//
  //               SAPT0               //
  //<<<<<<<<<<<<<<<<<<<<<<<<<<<<<<<<<<<//


*** tstart() called on ds1
*** at Tue Sep 14 17:26:51 2021

        SAPT0
    Ed Hohenstein
     6 June 2009

      Orbital Information
  --------------------------
    NSO        =       302
    NMO        =       302
    NRI        =       904
    NOCC A     =        18
    NOCC B     =        18
    FOCC A     =         5
    FOCC B     =         5
    NVIR A     =       284
    NVIR B     =       284

    Elst10,r            =    -0.000023678652 [Eh]
    Exch10              =    -0.000000000000 [Eh]
    Exch10 (S^2)        =    -0.000000000000 [Eh]

    Iter     Energy [mEh]          dE [mEh]         Residual      Time [s]
       1      -0.00002099       0.000020992       0.045521247             0
       2      -0.00001962      -0.000001370       0.012627028             0
       3      -0.00002142       0.000001799       0.005635483             0
       4      -0.00002185       0.000000428       0.001844727             1
       5      -0.00002181      -0.000000044       0.001047821             1
       6      -0.00002175      -0.000000055       0.000300000             1
       7      -0.00002176       0.000000010       0.000093871             1
       8      -0.00002176       0.000000002       0.000031858             1
       9      -0.00002176      -0.000000000       0.000010901             1
      10      -0.00002176      -0.000000000       0.000002654             1
      11      -0.00002176       0.000000000       0.000001129             1
      12      -0.00002176       0.000000000       0.000000351             2

    CHF Iterations converged


    Iter     Energy [mEh]          dE [mEh]         Residual      Time [s]
       1      -0.00002099       0.000020992       0.045521247             0
       2      -0.00001962      -0.000001370       0.012627028             0
       3      -0.00002142       0.000001799       0.005635483             0
       4      -0.00002185       0.000000428       0.001844727             0
       5      -0.00002181      -0.000000044       0.001047821             0
       6      -0.00002175      -0.000000055       0.000300000             0
       7      -0.00002176       0.000000010       0.000093871             0
       8      -0.00002176       0.000000002       0.000031858             1
       9      -0.00002176      -0.000000000       0.000010901             1
      10      -0.00002176      -0.000000000       0.000002654             1
      11      -0.00002176       0.000000000       0.000001129             1
      12      -0.00002176       0.000000000       0.000000351             1

    CHF Iterations converged

    Ind20,r (A<-B)      =    -0.000000021761 [Eh]
    Ind20,r (B<-A)      =    -0.000000021761 [Eh]
    Ind20,r             =    -0.000000043523 [Eh]
    Exch-Ind20,r (A<-B) =     0.000000000000 [Eh]
    Exch-Ind20,r (B<-A) =     0.000000000000 [Eh]
    Exch-Ind20,r        =     0.000000000000 [Eh]
    Disp20              =    -0.000000271109 [Eh]
    Disp20 (SS)         =    -0.000000135554 [Eh]
    Disp20 (OS)         =    -0.000000135554 [Eh]
    Exch-Disp20         =     0.000000000000 [Eh]
    Exch-Disp20 (SS)    =     0.000000000000 [Eh]
    Exch-Disp20 (OS)    =     0.000000000000 [Eh]

    SAPT Results
  --------------------------------------------------------------------------------------------------------
    Electrostatics                 -0.02367865 [mEh]      -0.01485858 [kcal/mol]      -0.06216829 [kJ/mol]
      Elst10,r                     -0.02367865 [mEh]      -0.01485858 [kcal/mol]      -0.06216829 [kJ/mol]

    Exchange                       -0.00000000 [mEh]      -0.00000000 [kcal/mol]      -0.00000000 [kJ/mol]
      Exch10                       -0.00000000 [mEh]      -0.00000000 [kcal/mol]      -0.00000000 [kJ/mol]
      Exch10(S^2)                  -0.00000000 [mEh]      -0.00000000 [kcal/mol]      -0.00000000 [kJ/mol]

    Induction                      -0.00004750 [mEh]      -0.00002981 [kcal/mol]      -0.00012472 [kJ/mol]
      Ind20,r                      -0.00004352 [mEh]      -0.00002731 [kcal/mol]      -0.00011427 [kJ/mol]
      Exch-Ind20,r                  0.00000000 [mEh]       0.00000000 [kcal/mol]       0.00000000 [kJ/mol]
      delta HF,r (2)               -0.00000398 [mEh]      -0.00000250 [kcal/mol]      -0.00001045 [kJ/mol]

    Dispersion                     -0.00027111 [mEh]      -0.00017012 [kcal/mol]      -0.00071180 [kJ/mol]
      Disp20                       -0.00027111 [mEh]      -0.00017012 [kcal/mol]      -0.00071180 [kJ/mol]
      Exch-Disp20                   0.00000000 [mEh]       0.00000000 [kcal/mol]       0.00000000 [kJ/mol]
      Disp20 (SS)                  -0.00013555 [mEh]      -0.00008506 [kcal/mol]      -0.00035590 [kJ/mol]
      Disp20 (OS)                  -0.00013555 [mEh]      -0.00008506 [kcal/mol]      -0.00035590 [kJ/mol]
      Exch-Disp20 (SS)              0.00000000 [mEh]       0.00000000 [kcal/mol]       0.00000000 [kJ/mol]
      Exch-Disp20 (OS)              0.00000000 [mEh]       0.00000000 [kcal/mol]       0.00000000 [kJ/mol]

  Total HF                         -0.02372616 [mEh]      -0.01488839 [kcal/mol]      -0.06229301 [kJ/mol]
  Total SAPT0                      -0.02399726 [mEh]      -0.01505851 [kcal/mol]      -0.06300481 [kJ/mol]

  Special recipe for scaled SAPT0 (see Manual):
    Electrostatics sSAPT0          -0.02367865 [mEh]      -0.01485858 [kcal/mol]      -0.06216829 [kJ/mol]
    Exchange sSAPT0                -0.00000000 [mEh]      -0.00000000 [kcal/mol]      -0.00000000 [kJ/mol]
    Induction sSAPT0               -0.00004750 [mEh]      -0.00002981 [kcal/mol]      -0.00012472 [kJ/mol]
    Dispersion sSAPT0              -0.00027111 [mEh]      -0.00017012 [kcal/mol]      -0.00071180 [kJ/mol]
  Total sSAPT0                     -0.02399726 [mEh]      -0.01505851 [kcal/mol]      -0.06300481 [kJ/mol]
  --------------------------------------------------------------------------------------------------------

*** tstop() called on ds1 at Tue Sep 14 17:27:01 2021
Module time:
	user time   =      45.75 seconds =       0.76 minutes
	system time =       4.02 seconds =       0.07 minutes
	total time  =         10 seconds =       0.17 minutes
Total time:
	user time   =     100.96 seconds =       1.68 minutes
	system time =       5.29 seconds =       0.09 minutes
	total time  =         22 seconds =       0.37 minutes


Warning! sapt0 does not have an associated derived wavefunction.The returned wavefunction is the dimer SCF wavefunction.


    Psi4 stopped on: Tuesday, 14 September 2021 05:27PM
    Psi4 wall time for execution: 0:00:21.53

*** Psi4 exiting successfully. Buy a developer a beer!
