
    -----------------------------------------------------------------------
          Psi4: An Open-Source Ab Initio Electronic Structure Package
                               Psi4 1.4rc3

                         Git: Rev {HEAD} 080dba6


    D. G. A. Smith, L. A. Burns, A. C. Simmonett, R. M. Parrish,
    M. C. Schieber, R. Galvelis, P. Kraus, H. Kruse, R. Di Remigio,
    A. Alenaizan, A. M. James, S. Lehtola, J. P. Misiewicz, M. Scheurer,
    R. A. Shaw, J. B. Schriber, Y. Xie, Z. L. Glick, D. A. Sirianni,
    J. S. O'Brien, J. M. Waldrop, A. Kumar, E. G. Hohenstein,
    B. P. Pritchard, B. R. Brooks, H. F. Schaefer III, A. Yu. Sokolov,
    K. Patkowski, A. E. DePrince III, U. Bozkaya, R. A. King,
    F. A. Evangelista, J. M. Turney, T. D. Crawford, C. D. Sherrill,
    J. Chem. Phys. 152(18) 184108 (2020). https://doi.org/10.1063/5.0006002

                            Additional Code Authors
    E. T. Seidl, C. L. Janssen, E. F. Valeev, M. L. Leininger,
    J. F. Gonthier, R. M. Richard, H. R. McAlexander, M. Saitow, X. Wang,
    P. Verma, and M. H. Lechner

             Previous Authors, Complete List of Code Contributors,
                       and Citations for Specific Modules
    https://github.com/psi4/psi4/blob/master/codemeta.json
    https://github.com/psi4/psi4/graphs/contributors
    http://psicode.org/psi4manual/master/introduction.html#citing-psifour

    -----------------------------------------------------------------------


    Psi4 started on: Tuesday, 14 September 2021 04:20PM

    Process ID: 32136
    Host:       ds1
    PSIDATADIR: /theoryfs2/ds/csargent/miniconda3/envs/cle/share/psi4
    Memory:     500.0 MiB
    Threads:    6

  ==> Input File <==

--------------------------------------------------------------------------
# PSI4 file produced by CrystaLattE

# Generated from:               imidazole.xyz
# Psithon input for N-mer:      2mer-0+214
# Number of atoms per monomer:  [9, 9]
# Number of replicas:           1
# COM priority:                 2.541637332907e-05
# Minimum COM separations:      17.998
# Separation priority:          5.814049667057e-05
# Minimum monomer separations:  13.660
# Cutoff priority:              2.252362647919e-06
# Nuclear repulsion energy:     366.33398850130834

memory 7 GB

molecule Dimer_0_214 {
  N           -4.29309621      -3.06837431       5.30516231
  N           -2.15847371      -2.92627296       1.72037448
  H           -0.02545587      -6.35903575       2.22046452
  H           -2.68566968      -6.53260241       6.61445954
  H           -4.74388423      -0.00609006       2.75615968
  H           -1.41045540      -2.24723147       0.00000000
  C           -1.43737991      -5.07504848       2.94065891
  C           -2.76900782      -5.14609916       5.13522880
  C           -3.85955036      -1.77728198       3.21093411
--
  N          -19.05808204      24.27192687      -4.69340168
  N          -21.19270454      24.12982552      -1.10861384
  H          -23.32572239      27.56258831      -1.60870389
  H          -20.66550857      27.73615497      -6.00269891
  H          -18.60729403      21.20964262      -2.14439904
  H          -21.94072285      23.45078403       0.61176063
  C          -21.91379834      26.27860104      -2.32889828
  C          -20.58217043      26.34965172      -4.52346817
  C          -19.49162790      22.98083454      -2.59917348
units = au
no_com
no_reorient
}

set {
  e_convergence 10
  d_convergence 10
  scf_type df
  mp2_type df
  cc_type df
  freeze_core true
}

energy('sapt0/aug-cc-pvdz')

--------------------------------------------------------------------------

  Memory set to   6.519 GiB by Python driver.

Scratch directory: /scratch/csargent/psi4.31446.79897/

Scratch directory: /scratch/csargent/psi4.31446.79897/

  //>>>>>>>>>>>>>>>>>>>>>>>>>>>>>>>>>>>//
  //              Dimer HF             //
  //<<<<<<<<<<<<<<<<<<<<<<<<<<<<<<<<<<<//


*** tstart() called on ds1
*** at Tue Sep 14 16:20:53 2021

   => Loading Basis Set <=

    Name: AUG-CC-PVDZ
    Role: ORBITAL
    Keyword: BASIS
    atoms 1-2, 10-11 entry N          line   218 file /theoryfs2/ds/csargent/miniconda3/envs/cle/share/psi4/basis/aug-cc-pvdz.gbs
    atoms 3-6, 12-15 entry H          line    40 file /theoryfs2/ds/csargent/miniconda3/envs/cle/share/psi4/basis/aug-cc-pvdz.gbs
    atoms 7-9, 16-18 entry C          line   182 file /theoryfs2/ds/csargent/miniconda3/envs/cle/share/psi4/basis/aug-cc-pvdz.gbs


         ---------------------------------------------------------
                                   SCF
               by Justin Turney, Rob Parrish, Andy Simmonett
                          and Daniel G. A. Smith
                              RHF Reference
                        6 Threads,   6675 MiB Core
         ---------------------------------------------------------

  ==> Geometry <==

    Molecular point group: c1
    Full point group: C1

    Geometry (in Bohr), charge = 0, multiplicity = 1:

       Center              X                  Y                   Z               Mass
    ------------   -----------------  -----------------  -----------------  -----------------
         N           -4.293096210000    -3.068374310000     5.305162310000    14.003074004430
         N           -2.158473710000    -2.926272960000     1.720374480000    14.003074004430
         H           -0.025455870000    -6.359035750000     2.220464520000     1.007825032230
         H           -2.685669680000    -6.532602410000     6.614459540000     1.007825032230
         H           -4.743884230000    -0.006090060000     2.756159680000     1.007825032230
         H           -1.410455400000    -2.247231470000     0.000000000000     1.007825032230
         C           -1.437379910000    -5.075048480000     2.940658910000    12.000000000000
         C           -2.769007820000    -5.146099160000     5.135228800000    12.000000000000
         C           -3.859550360000    -1.777281980000     3.210934110000    12.000000000000
         N          -19.058082040000    24.271926870000    -4.693401680000    14.003074004430
         N          -21.192704540000    24.129825520000    -1.108613840000    14.003074004430
         H          -23.325722390000    27.562588310000    -1.608703890000     1.007825032230
         H          -20.665508570000    27.736154970000    -6.002698910000     1.007825032230
         H          -18.607294030000    21.209642620000    -2.144399040000     1.007825032230
         H          -21.940722850000    23.450784030000     0.611760630000     1.007825032230
         C          -21.913798340000    26.278601040000    -2.328898280000    12.000000000000
         C          -20.582170430000    26.349651720000    -4.523468170000    12.000000000000
         C          -19.491627900000    22.980834540000    -2.599173480000    12.000000000000

  Running in c1 symmetry.

  Rotational constants: A =      0.02318  B =      0.00084  C =      0.00081 [cm^-1]
  Rotational constants: A =    694.98304  B =     25.26873  C =     24.42476 [MHz]
  Nuclear repulsion =  366.333988572978569

  Charge       = 0
  Multiplicity = 1
  Electrons    = 72
  Nalpha       = 36
  Nbeta        = 36

  ==> Algorithm <==

  SCF Algorithm Type is DF.
  DIIS enabled.
  MOM disabled.
  Fractional occupation disabled.
  Guess Type is SAD.
  Energy threshold   = 1.00e-10
  Density threshold  = 1.00e-10
  Integral threshold = 1.00e-12

  ==> Primary Basis <==

  Basis Set: AUG-CC-PVDZ
    Blend: AUG-CC-PVDZ
    Number of shells: 130
    Number of basis functions: 302
    Number of Cartesian functions: 322
    Spherical Harmonics?: true
    Max angular momentum: 2

   => Loading Basis Set <=

    Name: (AUG-CC-PVDZ AUX)
    Role: JKFIT
    Keyword: DF_BASIS_SCF
    atoms 1-2, 10-11 entry N          line   212 file /theoryfs2/ds/csargent/miniconda3/envs/cle/share/psi4/basis/aug-cc-pvdz-jkfit.gbs
    atoms 3-6, 12-15 entry H          line    70 file /theoryfs2/ds/csargent/miniconda3/envs/cle/share/psi4/basis/aug-cc-pvdz-jkfit.gbs
    atoms 7-9, 16-18 entry C          line   154 file /theoryfs2/ds/csargent/miniconda3/envs/cle/share/psi4/basis/aug-cc-pvdz-jkfit.gbs

  ==> Integral Setup <==

  ==> DiskDFJK: Density-Fitted J/K Matrices <==

    J tasked:                  Yes
    K tasked:                  Yes
    wK tasked:                  No
    OpenMP threads:              6
    Integrals threads:           6
    Memory [MiB]:             5006
    Algorithm:                Core
    Integral Cache:           SAVE
    Schwarz Cutoff:          1E-12
    Fitting Condition:       1E-10

   => Auxiliary Basis Set <=

  Basis Set: (AUG-CC-PVDZ AUX)
    Blend: AUG-CC-PVDZ-JKFIT
    Number of shells: 376
    Number of basis functions: 1116
    Number of Cartesian functions: 1290
    Spherical Harmonics?: true
    Max angular momentum: 3

  Minimum eigenvalue in the overlap matrix is 2.1836771386E-05.
  Reciprocal condition number of the overlap matrix is 1.8394266318E-06.
    Using symmetric orthogonalization.

  ==> Pre-Iterations <==

  SCF Guess: Superposition of Atomic Densities via on-the-fly atomic UHF (no occupation information).

   -------------------------
    Irrep   Nso     Nmo
   -------------------------
     A        302     302
   -------------------------
    Total     302     302
   -------------------------

  ==> Iterations <==

                           Total Energy        Delta E     RMS |[F,P]|

   @DF-RHF iter SAD:  -449.11714339248795   -4.49117e+02   0.00000e+00
   @DF-RHF iter   1:  -449.39633430642903   -2.79191e-01   2.30566e-03 DIIS
   @DF-RHF iter   2:  -449.61082020613054   -2.14486e-01   1.31072e-03 DIIS
   @DF-RHF iter   3:  -449.68346032224605   -7.26401e-02   2.45829e-04 DIIS
   @DF-RHF iter   4:  -449.68682620164475   -3.36588e-03   1.12811e-04 DIIS
   @DF-RHF iter   5:  -449.68742740920561   -6.01208e-04   1.78792e-05 DIIS
   @DF-RHF iter   6:  -449.68746205264722   -3.46434e-05   7.94301e-06 DIIS
   @DF-RHF iter   7:  -449.68746822417711   -6.17153e-06   3.10332e-06 DIIS
   @DF-RHF iter   8:  -449.68746968834796   -1.46417e-06   1.09978e-06 DIIS
   @DF-RHF iter   9:  -449.68746990998750   -2.21640e-07   2.66576e-07 DIIS
   @DF-RHF iter  10:  -449.68746992106134   -1.10738e-08   1.04613e-07 DIIS
   @DF-RHF iter  11:  -449.68746992273611   -1.67478e-09   4.61851e-08 DIIS
   @DF-RHF iter  12:  -449.68746992304250   -3.06386e-10   1.37821e-08 DIIS
   @DF-RHF iter  13:  -449.68746992306916   -2.66596e-11   5.07885e-09 DIIS
   @DF-RHF iter  14:  -449.68746992307143   -2.27374e-12   2.24017e-09 DIIS
   @DF-RHF iter  15:  -449.68746992307240   -9.66338e-13   7.46435e-10 DIIS
   @DF-RHF iter  16:  -449.68746992307246   -5.68434e-14   3.31829e-10 DIIS
   @DF-RHF iter  17:  -449.68746992307319   -7.38964e-13   6.64428e-11 DIIS
  Energy and wave function converged.


  ==> Post-Iterations <==

    Orbital Energies [Eh]
    ---------------------

    Doubly Occupied:

       1A    -15.637123     2A    -15.637123     3A    -15.551328
       4A    -15.551328     5A    -11.301009     6A    -11.301009
       7A    -11.263235     8A    -11.263235     9A    -11.245738
      10A    -11.245738    11A     -1.352941    12A     -1.352941
      13A     -1.169183    14A     -1.169183    15A     -1.012178
      16A     -1.012178    17A     -0.824458    18A     -0.824458
      19A     -0.803811    20A     -0.803811    21A     -0.760742
      22A     -0.760742    23A     -0.610173    24A     -0.610173
      25A     -0.604028    26A     -0.604028    27A     -0.601990
      28A     -0.601990    29A     -0.571042    30A     -0.571042
      31A     -0.435610    32A     -0.435610    33A     -0.400558
      34A     -0.400558    35A     -0.320766    36A     -0.320766

    Virtual:

      37A      0.025543    38A      0.025558    39A      0.041449
      40A      0.041699    41A      0.049796    42A      0.049935
      43A      0.061647    44A      0.061918    45A      0.089028
      46A      0.089028    47A      0.101255    48A      0.101256
      49A      0.120751    50A      0.120752    51A      0.125515
      52A      0.125516    53A      0.133517    54A      0.133538
      55A      0.133621    56A      0.133659    57A      0.140843
      58A      0.140843    59A      0.156473    60A      0.156482
      61A      0.158249    62A      0.159096    63A      0.171761
      64A      0.171892    65A      0.178150    66A      0.178151
      67A      0.186921    68A      0.187444    69A      0.211434
      70A      0.211434    71A      0.220162    72A      0.220215
      73A      0.232244    74A      0.232247    75A      0.241356
      76A      0.241356    77A      0.261531    78A      0.261567
      79A      0.267572    80A      0.267582    81A      0.277753
      82A      0.277753    83A      0.301659    84A      0.301695
      85A      0.314282    86A      0.314287    87A      0.338102
      88A      0.338102    89A      0.361433    90A      0.361461
      91A      0.370711    92A      0.370712    93A      0.379793
      94A      0.379793    95A      0.388178    96A      0.388293
      97A      0.396928    98A      0.397148    99A      0.416507
     100A      0.417330   101A      0.428859   102A      0.428886
     103A      0.451982   104A      0.451983   105A      0.466292
     106A      0.466292   107A      0.481169   108A      0.481207
     109A      0.486198   110A      0.486217   111A      0.488048
     112A      0.488064   113A      0.551645   114A      0.551649
     115A      0.556260   116A      0.556383   117A      0.568184
     118A      0.568220   119A      0.576373   120A      0.576415
     121A      0.594174   122A      0.594230   123A      0.598876
     124A      0.598916   125A      0.615976   126A      0.615979
     127A      0.636436   128A      0.636498   129A      0.652395
     130A      0.652419   131A      0.669188   132A      0.669190
     133A      0.671256   134A      0.671259   135A      0.678136
     136A      0.678136   137A      0.683796   138A      0.683798
     139A      0.714632   140A      0.714632   141A      0.725714
     142A      0.725715   143A      0.741151   144A      0.741151
     145A      0.762584   146A      0.762619   147A      0.767261
     148A      0.767345   149A      0.790860   150A      0.790862
     151A      0.793511   152A      0.793513   153A      0.809662
     154A      0.809712   155A      0.860283   156A      0.860357
     157A      0.871331   158A      0.871358   159A      0.885649
     160A      0.885662   161A      0.889746   162A      0.889746
     163A      0.954273   164A      0.954273   165A      0.976902
     166A      0.976902   167A      0.998206   168A      0.998323
     169A      1.010579   170A      1.010585   171A      1.017313
     172A      1.017315   173A      1.030597   174A      1.030597
     175A      1.077210   176A      1.077270   177A      1.084467
     178A      1.084473   179A      1.126870   180A      1.126918
     181A      1.140340   182A      1.140459   183A      1.149488
     184A      1.149491   185A      1.167031   186A      1.167132
     187A      1.217345   188A      1.217345   189A      1.260653
     190A      1.260666   191A      1.302435   192A      1.302453
     193A      1.384967   194A      1.384973   195A      1.398031
     196A      1.398041   197A      1.451056   198A      1.451058
     199A      1.503187   200A      1.503199   201A      1.518339
     202A      1.518339   203A      1.574038   204A      1.574057
     205A      1.574165   206A      1.574203   207A      1.596206
     208A      1.596406   209A      1.652072   210A      1.652072
     211A      1.671420   212A      1.671422   213A      1.705206
     214A      1.705207   215A      1.724380   216A      1.724381
     217A      1.782568   218A      1.782570   219A      1.798960
     220A      1.799007   221A      1.806965   222A      1.806974
     223A      1.864786   224A      1.864928   225A      1.881363
     226A      1.881423   227A      1.924301   228A      1.924301
     229A      1.964908   230A      1.964911   231A      2.021948
     232A      2.021957   233A      2.025357   234A      2.025381
     235A      2.072899   236A      2.072918   237A      2.106967
     238A      2.106977   239A      2.126677   240A      2.126678
     241A      2.135884   242A      2.135884   243A      2.168595
     244A      2.168599   245A      2.178742   246A      2.178750
     247A      2.267010   248A      2.267011   249A      2.275875
     250A      2.275876   251A      2.300844   252A      2.300844
     253A      2.331989   254A      2.331992   255A      2.417686
     256A      2.417686   257A      2.496869   258A      2.496869
     259A      2.513936   260A      2.513937   261A      2.545269
     262A      2.545337   263A      2.585659   264A      2.585674
     265A      2.633678   266A      2.633680   267A      2.734007
     268A      2.734013   269A      2.746935   270A      2.746937
     271A      2.766983   272A      2.767038   273A      2.794069
     274A      2.794071   275A      2.803354   276A      2.803354
     277A      2.837558   278A      2.837604   279A      2.867132
     280A      2.867133   281A      2.952667   282A      2.952667
     283A      2.980766   284A      2.980766   285A      3.051121
     286A      3.051121   287A      3.069820   288A      3.069835
     289A      3.199080   290A      3.199085   291A      3.208696
     292A      3.208737   293A      3.334737   294A      3.334737
     295A      3.354470   296A      3.354496   297A      3.518462
     298A      3.518464   299A      3.768187   300A      3.768221
     301A      4.108946   302A      4.108965

    Final Occupation by Irrep:
              A
    DOCC [    36 ]

  @DF-RHF Final Energy:  -449.68746992307319

   => Energetics <=

    Nuclear Repulsion Energy =            366.3339885729785692
    One-Electron Energy =               -1334.1792724879624075
    Two-Electron Energy =                 518.1578139919106434
    Total Energy =                       -449.6874699230731949

Computation Completed


Properties will be evaluated at   0.000000,   0.000000,   0.000000 [a0]

Properties computed using the SCF density matrix

  Nuclear Dipole Moment: [e a0]
     X:  -840.6424      Y:   763.3279      Z:    22.0234

  Electronic Dipole Moment: [e a0]
     X:   840.6424      Y:  -763.3279      Z:   -22.0234

  Dipole Moment: [e a0]
     X:    -0.0000      Y:    -0.0000      Z:    -0.0000     Total:     0.0000

  Dipole Moment: [D]
     X:    -0.0000      Y:    -0.0000      Z:    -0.0000     Total:     0.0000


*** tstop() called on ds1 at Tue Sep 14 16:20:58 2021
Module time:
	user time   =      22.32 seconds =       0.37 minutes
	system time =       0.68 seconds =       0.01 minutes
	total time  =          5 seconds =       0.08 minutes
Total time:
	user time   =      22.32 seconds =       0.37 minutes
	system time =       0.68 seconds =       0.01 minutes
	total time  =          5 seconds =       0.08 minutes

  //>>>>>>>>>>>>>>>>>>>>>>>>>>>>>>>>>>>//
  //            Monomer A HF           //
  //<<<<<<<<<<<<<<<<<<<<<<<<<<<<<<<<<<<//


*** tstart() called on ds1
*** at Tue Sep 14 16:20:58 2021

   => Loading Basis Set <=

    Name: AUG-CC-PVDZ
    Role: ORBITAL
    Keyword: BASIS
    atoms 1-2, 10-11 entry N          line   218 file /theoryfs2/ds/csargent/miniconda3/envs/cle/share/psi4/basis/aug-cc-pvdz.gbs
    atoms 3-6, 12-15 entry H          line    40 file /theoryfs2/ds/csargent/miniconda3/envs/cle/share/psi4/basis/aug-cc-pvdz.gbs
    atoms 7-9, 16-18 entry C          line   182 file /theoryfs2/ds/csargent/miniconda3/envs/cle/share/psi4/basis/aug-cc-pvdz.gbs


         ---------------------------------------------------------
                                   SCF
               by Justin Turney, Rob Parrish, Andy Simmonett
                          and Daniel G. A. Smith
                              RHF Reference
                        6 Threads,   6675 MiB Core
         ---------------------------------------------------------

  ==> Geometry <==

    Molecular point group: c1
    Full point group: C1

    Geometry (in Bohr), charge = 0, multiplicity = 1:

       Center              X                  Y                   Z               Mass
    ------------   -----------------  -----------------  -----------------  -----------------
         N           -4.293096210000    -3.068374310000     5.305162310000    14.003074004430
         N           -2.158473710000    -2.926272960000     1.720374480000    14.003074004430
         H           -0.025455870000    -6.359035750000     2.220464520000     1.007825032230
         H           -2.685669680000    -6.532602410000     6.614459540000     1.007825032230
         H           -4.743884230000    -0.006090060000     2.756159680000     1.007825032230
         H           -1.410455400000    -2.247231470000     0.000000000000     1.007825032230
         C           -1.437379910000    -5.075048480000     2.940658910000    12.000000000000
         C           -2.769007820000    -5.146099160000     5.135228800000    12.000000000000
         C           -3.859550360000    -1.777281980000     3.210934110000    12.000000000000
      Gh(N)         -19.058082040000    24.271926870000    -4.693401680000    14.003074004430
      Gh(N)         -21.192704540000    24.129825520000    -1.108613840000    14.003074004430
      Gh(H)         -23.325722390000    27.562588310000    -1.608703890000     1.007825032230
      Gh(H)         -20.665508570000    27.736154970000    -6.002698910000     1.007825032230
      Gh(H)         -18.607294030000    21.209642620000    -2.144399040000     1.007825032230
      Gh(H)         -21.940722850000    23.450784030000     0.611760630000     1.007825032230
      Gh(C)         -21.913798340000    26.278601040000    -2.328898280000    12.000000000000
      Gh(C)         -20.582170430000    26.349651720000    -4.523468170000    12.000000000000
      Gh(C)         -19.491627900000    22.980834540000    -2.599173480000    12.000000000000

  Running in c1 symmetry.

  Rotational constants: A =      0.02318  B =      0.00084  C =      0.00081 [cm^-1]
  Rotational constants: A =    694.98304  B =     25.26873  C =     24.42476 [MHz]
  Nuclear repulsion =  164.086695994184396

  Charge       = 0
  Multiplicity = 1
  Electrons    = 36
  Nalpha       = 18
  Nbeta        = 18

  ==> Algorithm <==

  SCF Algorithm Type is DF.
  DIIS enabled.
  MOM disabled.
  Fractional occupation disabled.
  Guess Type is SAD.
  Energy threshold   = 1.00e-10
  Density threshold  = 1.00e-10
  Integral threshold = 1.00e-12

  ==> Primary Basis <==

  Basis Set: AUG-CC-PVDZ
    Blend: AUG-CC-PVDZ
    Number of shells: 130
    Number of basis functions: 302
    Number of Cartesian functions: 322
    Spherical Harmonics?: true
    Max angular momentum: 2

   => Loading Basis Set <=

    Name: (AUG-CC-PVDZ AUX)
    Role: JKFIT
    Keyword: DF_BASIS_SCF
    atoms 1-2, 10-11 entry N          line   212 file /theoryfs2/ds/csargent/miniconda3/envs/cle/share/psi4/basis/aug-cc-pvdz-jkfit.gbs
    atoms 3-6, 12-15 entry H          line    70 file /theoryfs2/ds/csargent/miniconda3/envs/cle/share/psi4/basis/aug-cc-pvdz-jkfit.gbs
    atoms 7-9, 16-18 entry C          line   154 file /theoryfs2/ds/csargent/miniconda3/envs/cle/share/psi4/basis/aug-cc-pvdz-jkfit.gbs

  ==> Integral Setup <==

  ==> DiskDFJK: Density-Fitted J/K Matrices <==

    J tasked:                  Yes
    K tasked:                  Yes
    wK tasked:                  No
    OpenMP threads:              6
    Integrals threads:           6
    Memory [MiB]:             5006
    Algorithm:                Core
    Integral Cache:           LOAD
    Schwarz Cutoff:          1E-12
    Fitting Condition:       1E-10

   => Auxiliary Basis Set <=

  Basis Set: (AUG-CC-PVDZ AUX)
    Blend: AUG-CC-PVDZ-JKFIT
    Number of shells: 376
    Number of basis functions: 1116
    Number of Cartesian functions: 1290
    Spherical Harmonics?: true
    Max angular momentum: 3

  Minimum eigenvalue in the overlap matrix is 2.1836771386E-05.
  Reciprocal condition number of the overlap matrix is 1.8394266318E-06.
    Using symmetric orthogonalization.

  ==> Pre-Iterations <==

  SCF Guess: Superposition of Atomic Densities via on-the-fly atomic UHF (no occupation information).

   -------------------------
    Irrep   Nso     Nmo
   -------------------------
     A        302     302
   -------------------------
    Total     302     302
   -------------------------

  ==> Iterations <==

                           Total Energy        Delta E     RMS |[F,P]|

   @DF-RHF iter SAD:  -224.55857169573176   -2.24559e+02   0.00000e+00
   @DF-RHF iter   1:  -224.69806464800260   -1.39493e-01   1.63067e-03 DIIS
   @DF-RHF iter   2:  -224.80532026696238   -1.07256e-01   9.27384e-04 DIIS
   @DF-RHF iter   3:  -224.84168817105288   -3.63679e-02   1.74019e-04 DIIS
   @DF-RHF iter   4:  -224.84337342312025   -1.68525e-03   7.98972e-05 DIIS
   @DF-RHF iter   5:  -224.84367500382982   -3.01581e-04   1.26452e-05 DIIS
   @DF-RHF iter   6:  -224.84369234086194   -1.73370e-05   5.61871e-06 DIIS
   @DF-RHF iter   7:  -224.84369542893120   -3.08807e-06   2.19503e-06 DIIS
   @DF-RHF iter   8:  -224.84369616084985   -7.31919e-07   7.77587e-07 DIIS
   @DF-RHF iter   9:  -224.84369627164364   -1.10794e-07   1.87961e-07 DIIS
   @DF-RHF iter  10:  -224.84369627717945   -5.53581e-09   7.33125e-08 DIIS
   @DF-RHF iter  11:  -224.84369627800561   -8.26162e-10   3.26918e-08 DIIS
   @DF-RHF iter  12:  -224.84369627815772   -1.52113e-10   9.70884e-09 DIIS
   @DF-RHF iter  13:  -224.84369627817114   -1.34150e-11   3.58840e-09 DIIS
   @DF-RHF iter  14:  -224.84369627817222   -1.08002e-12   1.58275e-09 DIIS
   @DF-RHF iter  15:  -224.84369627817287   -6.53699e-13   5.27556e-10 DIIS
   @DF-RHF iter  16:  -224.84369627817301   -1.42109e-13   2.34517e-10 DIIS
   @DF-RHF iter  17:  -224.84369627817301    0.00000e+00   4.71138e-11 DIIS
  Energy and wave function converged.


  ==> Post-Iterations <==

    Orbital Energies [Eh]
    ---------------------

    Doubly Occupied:

       1A    -15.637071     2A    -15.551216     3A    -11.300916
       4A    -11.263160     5A    -11.245653     6A     -1.352867
       7A     -1.169098     8A     -1.012098     9A     -0.824390
      10A     -0.803731    11A     -0.760666    12A     -0.610096
      13A     -0.603958    14A     -0.601922    15A     -0.570942
      16A     -0.435483    17A     -0.400464    18A     -0.320685

    Virtual:

      19A      0.022604    20A      0.025388    21A      0.040104
      22A      0.041588    23A      0.043646    24A      0.049998
      25A      0.061862    26A      0.067838    27A      0.076552
      28A      0.086190    29A      0.089096    30A      0.097567
      31A      0.101397    32A      0.120830    33A      0.124672
      34A      0.125042    35A      0.125577    36A      0.126839
      37A      0.127287    38A      0.133470    39A      0.133756
      40A      0.134118    41A      0.138192    42A      0.140942
      43A      0.156499    44A      0.156716    45A      0.158706
      46A      0.171989    47A      0.178189    48A      0.187221
      49A      0.192309    50A      0.207860    51A      0.209395
      52A      0.211559    53A      0.212441    54A      0.220193
      55A      0.220315    56A      0.222539    57A      0.232359
      58A      0.233159    59A      0.241408    60A      0.261605
      61A      0.267803    62A      0.272190    63A      0.277911
      64A      0.299329    65A      0.301746    66A      0.306454
      67A      0.314442    68A      0.319278    69A      0.338197
      70A      0.360178    71A      0.361491    72A      0.370745
      73A      0.375557    74A      0.379800    75A      0.388292
      76A      0.393465    77A      0.397098    78A      0.417034
      79A      0.427448    80A      0.429000    81A      0.435291
      82A      0.440376    83A      0.449129    84A      0.452059
      85A      0.452251    86A      0.466350    87A      0.468229
      88A      0.481062    89A      0.481229    90A      0.486283
      91A      0.488151    92A      0.517364    93A      0.520652
      94A      0.536018    95A      0.538369    96A      0.543178
      97A      0.551710    98A      0.555915    99A      0.556384
     100A      0.568280   101A      0.576475   102A      0.579495
     103A      0.587605   104A      0.594250   105A      0.598939
     106A      0.606482   107A      0.612096   108A      0.616080
     109A      0.618418   110A      0.636538   111A      0.639829
     112A      0.652504   113A      0.669282   114A      0.671337
     115A      0.677701   116A      0.678185   117A      0.683822
     118A      0.683875   119A      0.711195   120A      0.714698
     121A      0.725758   122A      0.736155   123A      0.741238
     124A      0.756218   125A      0.762698   126A      0.767400
     127A      0.790929   128A      0.793606   129A      0.798311
     130A      0.809746   131A      0.810547   132A      0.812522
     133A      0.823336   134A      0.836627   135A      0.859670
     136A      0.860398   137A      0.871425   138A      0.885765
     139A      0.886592   140A      0.889823   141A      0.909809
     142A      0.919699   143A      0.926948   144A      0.954351
     145A      0.968797   146A      0.976964   147A      0.991868
     148A      0.998360   149A      1.010706   150A      1.015500
     151A      1.017404   152A      1.030676   153A      1.059069
     154A      1.077352   155A      1.078716   156A      1.084552
     157A      1.103728   158A      1.116106   159A      1.126984
     160A      1.132606   161A      1.140498   162A      1.149565
     163A      1.167170   164A      1.170948   165A      1.174137
     166A      1.197633   167A      1.210679   168A      1.217445
     169A      1.260721   170A      1.278066   171A      1.290714
     172A      1.297032   173A      1.302539   174A      1.312636
     175A      1.318195   176A      1.347630   177A      1.384231
     178A      1.385028   179A      1.398145   180A      1.451143
     181A      1.495014   182A      1.503288   183A      1.515924
     184A      1.518410   185A      1.541447   186A      1.574127
     187A      1.574285   188A      1.596381   189A      1.652159
     190A      1.661035   191A      1.671505   192A      1.705286
     193A      1.724477   194A      1.782643   195A      1.799068
     196A      1.807063   197A      1.864951   198A      1.881478
     199A      1.924391   200A      1.964987   201A      2.022005
     202A      2.025429   203A      2.039783   204A      2.072981
     205A      2.101169   206A      2.107054   207A      2.119548
     208A      2.126759   209A      2.131495   210A      2.135965
     211A      2.149620   212A      2.168670   213A      2.178815
     214A      2.185230   215A      2.229904   216A      2.252876
     217A      2.267082   218A      2.275963   219A      2.300924
     220A      2.308822   221A      2.327308   222A      2.332072
     223A      2.376993   224A      2.405921   225A      2.413573
     226A      2.417758   227A      2.455951   228A      2.471031
     229A      2.494143   230A      2.496919   231A      2.514025
     232A      2.526069   233A      2.545346   234A      2.545642
     235A      2.577090   236A      2.585743   237A      2.600082
     238A      2.633765   239A      2.696507   240A      2.734093
     241A      2.747025   242A      2.767090   243A      2.790601
     244A      2.794149   245A      2.803444   246A      2.829082
     247A      2.837641   248A      2.867213   249A      2.896007
     250A      2.933548   251A      2.949715   252A      2.952738
     253A      2.980862   254A      3.043791   255A      3.051201
     256A      3.069910   257A      3.076487   258A      3.132210
     259A      3.159933   260A      3.183222   261A      3.199163
     262A      3.208795   263A      3.213651   264A      3.334816
     265A      3.341162   266A      3.354572   267A      3.355063
     268A      3.363209   269A      3.458998   270A      3.494707
     271A      3.518552   272A      3.569978   273A      3.609169
     274A      3.707581   275A      3.727047   276A      3.768294
     277A      3.778722   278A      3.798564   279A      3.858276
     280A      3.871037   281A      4.004191   282A      4.109022
     283A      4.213108   284A      4.637067   285A      4.639126
     286A      4.696278   287A      4.772145   288A      4.880433
     289A      5.021749   290A      5.254975   291A      5.373511
     292A      5.495124   293A      5.610718   294A      5.716658
     295A      5.884257   296A      6.090099   297A      6.198488
     298A     18.255813   299A     18.590462   300A     19.300773
     301A     25.312187   302A     25.453676

    Final Occupation by Irrep:
              A
    DOCC [    18 ]

  @DF-RHF Final Energy:  -224.84369627817301

   => Energetics <=

    Nuclear Repulsion Energy =            164.0866959941843959
    One-Electron Energy =                -628.9319562988000598
    Two-Electron Energy =                 240.0015640264426224
    Total Energy =                       -224.8436962781730131

Computation Completed


Properties will be evaluated at   0.000000,   0.000000,   0.000000 [a0]

Properties computed using the SCF density matrix

  Nuclear Dipole Moment: [e a0]
     X:  -102.4221      Y:  -129.0981      Z:   128.4908

  Electronic Dipole Moment: [e a0]
     X:   103.2259      Y:   129.2613      Z:  -129.8232

  Dipole Moment: [e a0]
     X:     0.8038      Y:     0.1633      Z:    -1.3324     Total:     1.5646

  Dipole Moment: [D]
     X:     2.0431      Y:     0.4150      Z:    -3.3867     Total:     3.9769


*** tstop() called on ds1 at Tue Sep 14 16:21:02 2021
Module time:
	user time   =      16.79 seconds =       0.28 minutes
	system time =       0.38 seconds =       0.01 minutes
	total time  =          4 seconds =       0.07 minutes
Total time:
	user time   =      39.41 seconds =       0.66 minutes
	system time =       1.07 seconds =       0.02 minutes
	total time  =          9 seconds =       0.15 minutes

  //>>>>>>>>>>>>>>>>>>>>>>>>>>>>>>>>>>>//
  //            Monomer B HF           //
  //<<<<<<<<<<<<<<<<<<<<<<<<<<<<<<<<<<<//


*** tstart() called on ds1
*** at Tue Sep 14 16:21:02 2021

   => Loading Basis Set <=

    Name: AUG-CC-PVDZ
    Role: ORBITAL
    Keyword: BASIS
    atoms 1-2, 10-11 entry N          line   218 file /theoryfs2/ds/csargent/miniconda3/envs/cle/share/psi4/basis/aug-cc-pvdz.gbs
    atoms 3-6, 12-15 entry H          line    40 file /theoryfs2/ds/csargent/miniconda3/envs/cle/share/psi4/basis/aug-cc-pvdz.gbs
    atoms 7-9, 16-18 entry C          line   182 file /theoryfs2/ds/csargent/miniconda3/envs/cle/share/psi4/basis/aug-cc-pvdz.gbs


         ---------------------------------------------------------
                                   SCF
               by Justin Turney, Rob Parrish, Andy Simmonett
                          and Daniel G. A. Smith
                              RHF Reference
                        6 Threads,   6675 MiB Core
         ---------------------------------------------------------

  ==> Geometry <==

    Molecular point group: c1
    Full point group: C1

    Geometry (in Bohr), charge = 0, multiplicity = 1:

       Center              X                  Y                   Z               Mass
    ------------   -----------------  -----------------  -----------------  -----------------
      Gh(N)          -4.293096210000    -3.068374310000     5.305162310000    14.003074004430
      Gh(N)          -2.158473710000    -2.926272960000     1.720374480000    14.003074004430
      Gh(H)          -0.025455870000    -6.359035750000     2.220464520000     1.007825032230
      Gh(H)          -2.685669680000    -6.532602410000     6.614459540000     1.007825032230
      Gh(H)          -4.743884230000    -0.006090060000     2.756159680000     1.007825032230
      Gh(H)          -1.410455400000    -2.247231470000     0.000000000000     1.007825032230
      Gh(C)          -1.437379910000    -5.075048480000     2.940658910000    12.000000000000
      Gh(C)          -2.769007820000    -5.146099160000     5.135228800000    12.000000000000
      Gh(C)          -3.859550360000    -1.777281980000     3.210934110000    12.000000000000
         N          -19.058082040000    24.271926870000    -4.693401680000    14.003074004430
         N          -21.192704540000    24.129825520000    -1.108613840000    14.003074004430
         H          -23.325722390000    27.562588310000    -1.608703890000     1.007825032230
         H          -20.665508570000    27.736154970000    -6.002698910000     1.007825032230
         H          -18.607294030000    21.209642620000    -2.144399040000     1.007825032230
         H          -21.940722850000    23.450784030000     0.611760630000     1.007825032230
         C          -21.913798340000    26.278601040000    -2.328898280000    12.000000000000
         C          -20.582170430000    26.349651720000    -4.523468170000    12.000000000000
         C          -19.491627900000    22.980834540000    -2.599173480000    12.000000000000

  Running in c1 symmetry.

  Rotational constants: A =      0.02318  B =      0.00084  C =      0.00081 [cm^-1]
  Rotational constants: A =    694.98304  B =     25.26873  C =     24.42476 [MHz]
  Nuclear repulsion =  164.086695929945932

  Charge       = 0
  Multiplicity = 1
  Electrons    = 36
  Nalpha       = 18
  Nbeta        = 18

  ==> Algorithm <==

  SCF Algorithm Type is DF.
  DIIS enabled.
  MOM disabled.
  Fractional occupation disabled.
  Guess Type is SAD.
  Energy threshold   = 1.00e-10
  Density threshold  = 1.00e-10
  Integral threshold = 1.00e-12

  ==> Primary Basis <==

  Basis Set: AUG-CC-PVDZ
    Blend: AUG-CC-PVDZ
    Number of shells: 130
    Number of basis functions: 302
    Number of Cartesian functions: 322
    Spherical Harmonics?: true
    Max angular momentum: 2

   => Loading Basis Set <=

    Name: (AUG-CC-PVDZ AUX)
    Role: JKFIT
    Keyword: DF_BASIS_SCF
    atoms 1-2, 10-11 entry N          line   212 file /theoryfs2/ds/csargent/miniconda3/envs/cle/share/psi4/basis/aug-cc-pvdz-jkfit.gbs
    atoms 3-6, 12-15 entry H          line    70 file /theoryfs2/ds/csargent/miniconda3/envs/cle/share/psi4/basis/aug-cc-pvdz-jkfit.gbs
    atoms 7-9, 16-18 entry C          line   154 file /theoryfs2/ds/csargent/miniconda3/envs/cle/share/psi4/basis/aug-cc-pvdz-jkfit.gbs

  ==> Integral Setup <==

  ==> DiskDFJK: Density-Fitted J/K Matrices <==

    J tasked:                  Yes
    K tasked:                  Yes
    wK tasked:                  No
    OpenMP threads:              6
    Integrals threads:           6
    Memory [MiB]:             5006
    Algorithm:                Core
    Integral Cache:           LOAD
    Schwarz Cutoff:          1E-12
    Fitting Condition:       1E-10

   => Auxiliary Basis Set <=

  Basis Set: (AUG-CC-PVDZ AUX)
    Blend: AUG-CC-PVDZ-JKFIT
    Number of shells: 376
    Number of basis functions: 1116
    Number of Cartesian functions: 1290
    Spherical Harmonics?: true
    Max angular momentum: 3

  Minimum eigenvalue in the overlap matrix is 2.1836771386E-05.
  Reciprocal condition number of the overlap matrix is 1.8394266318E-06.
    Using symmetric orthogonalization.

  ==> Pre-Iterations <==

  SCF Guess: Superposition of Atomic Densities via on-the-fly atomic UHF (no occupation information).

   -------------------------
    Irrep   Nso     Nmo
   -------------------------
     A        302     302
   -------------------------
    Total     302     302
   -------------------------

  ==> Iterations <==

                           Total Energy        Delta E     RMS |[F,P]|

   @DF-RHF iter SAD:  -224.55857169087253   -2.24559e+02   0.00000e+00
   @DF-RHF iter   1:  -224.69806464849324   -1.39493e-01   1.63067e-03 DIIS
   @DF-RHF iter   2:  -224.80532026713880   -1.07256e-01   9.27384e-04 DIIS
   @DF-RHF iter   3:  -224.84168817101832   -3.63679e-02   1.74019e-04 DIIS
   @DF-RHF iter   4:  -224.84337342308831   -1.68525e-03   7.98972e-05 DIIS
   @DF-RHF iter   5:  -224.84367500379972   -3.01581e-04   1.26452e-05 DIIS
   @DF-RHF iter   6:  -224.84369234083135   -1.73370e-05   5.61871e-06 DIIS
   @DF-RHF iter   7:  -224.84369542890056   -3.08807e-06   2.19503e-06 DIIS
   @DF-RHF iter   8:  -224.84369616081838   -7.31918e-07   7.77587e-07 DIIS
   @DF-RHF iter   9:  -224.84369627161257   -1.10794e-07   1.87961e-07 DIIS
   @DF-RHF iter  10:  -224.84369627714838   -5.53581e-09   7.33125e-08 DIIS
   @DF-RHF iter  11:  -224.84369627797440   -8.26020e-10   3.26918e-08 DIIS
   @DF-RHF iter  12:  -224.84369627812669   -1.52284e-10   9.70884e-09 DIIS
   @DF-RHF iter  13:  -224.84369627813965   -1.29603e-11   3.58840e-09 DIIS
   @DF-RHF iter  14:  -224.84369627814118   -1.53477e-12   1.58275e-09 DIIS
   @DF-RHF iter  15:  -224.84369627814178   -5.96856e-13   5.27556e-10 DIIS
   @DF-RHF iter  16:  -224.84369627814178    0.00000e+00   2.34517e-10 DIIS
   @DF-RHF iter  17:  -224.84369627814175    2.84217e-14   4.71137e-11 DIIS
  Energy and wave function converged.


  ==> Post-Iterations <==

    Orbital Energies [Eh]
    ---------------------

    Doubly Occupied:

       1A    -15.637071     2A    -15.551216     3A    -11.300916
       4A    -11.263160     5A    -11.245653     6A     -1.352867
       7A     -1.169098     8A     -1.012098     9A     -0.824390
      10A     -0.803731    11A     -0.760666    12A     -0.610096
      13A     -0.603958    14A     -0.601922    15A     -0.570942
      16A     -0.435483    17A     -0.400464    18A     -0.320685

    Virtual:

      19A      0.022604    20A      0.025388    21A      0.040104
      22A      0.041588    23A      0.043646    24A      0.049998
      25A      0.061862    26A      0.067838    27A      0.076552
      28A      0.086190    29A      0.089096    30A      0.097567
      31A      0.101397    32A      0.120830    33A      0.124672
      34A      0.125042    35A      0.125577    36A      0.126839
      37A      0.127287    38A      0.133470    39A      0.133756
      40A      0.134118    41A      0.138192    42A      0.140942
      43A      0.156499    44A      0.156716    45A      0.158706
      46A      0.171989    47A      0.178189    48A      0.187221
      49A      0.192309    50A      0.207860    51A      0.209395
      52A      0.211559    53A      0.212441    54A      0.220193
      55A      0.220315    56A      0.222539    57A      0.232359
      58A      0.233159    59A      0.241408    60A      0.261605
      61A      0.267803    62A      0.272190    63A      0.277911
      64A      0.299329    65A      0.301746    66A      0.306454
      67A      0.314442    68A      0.319278    69A      0.338197
      70A      0.360178    71A      0.361491    72A      0.370745
      73A      0.375557    74A      0.379800    75A      0.388292
      76A      0.393465    77A      0.397098    78A      0.417034
      79A      0.427448    80A      0.429000    81A      0.435291
      82A      0.440376    83A      0.449129    84A      0.452059
      85A      0.452251    86A      0.466350    87A      0.468229
      88A      0.481062    89A      0.481229    90A      0.486283
      91A      0.488151    92A      0.517364    93A      0.520652
      94A      0.536018    95A      0.538369    96A      0.543178
      97A      0.551710    98A      0.555915    99A      0.556384
     100A      0.568280   101A      0.576475   102A      0.579495
     103A      0.587605   104A      0.594250   105A      0.598939
     106A      0.606482   107A      0.612096   108A      0.616080
     109A      0.618418   110A      0.636538   111A      0.639829
     112A      0.652504   113A      0.669282   114A      0.671337
     115A      0.677701   116A      0.678185   117A      0.683822
     118A      0.683875   119A      0.711195   120A      0.714698
     121A      0.725758   122A      0.736155   123A      0.741238
     124A      0.756218   125A      0.762698   126A      0.767400
     127A      0.790929   128A      0.793606   129A      0.798311
     130A      0.809746   131A      0.810547   132A      0.812522
     133A      0.823336   134A      0.836627   135A      0.859670
     136A      0.860398   137A      0.871425   138A      0.885765
     139A      0.886592   140A      0.889823   141A      0.909809
     142A      0.919699   143A      0.926948   144A      0.954351
     145A      0.968797   146A      0.976964   147A      0.991868
     148A      0.998360   149A      1.010706   150A      1.015500
     151A      1.017404   152A      1.030676   153A      1.059069
     154A      1.077352   155A      1.078716   156A      1.084552
     157A      1.103728   158A      1.116106   159A      1.126984
     160A      1.132606   161A      1.140498   162A      1.149565
     163A      1.167170   164A      1.170948   165A      1.174137
     166A      1.197633   167A      1.210679   168A      1.217445
     169A      1.260721   170A      1.278066   171A      1.290714
     172A      1.297032   173A      1.302539   174A      1.312636
     175A      1.318195   176A      1.347630   177A      1.384231
     178A      1.385028   179A      1.398145   180A      1.451143
     181A      1.495014   182A      1.503288   183A      1.515924
     184A      1.518410   185A      1.541447   186A      1.574127
     187A      1.574285   188A      1.596381   189A      1.652159
     190A      1.661035   191A      1.671505   192A      1.705286
     193A      1.724477   194A      1.782643   195A      1.799068
     196A      1.807063   197A      1.864951   198A      1.881478
     199A      1.924391   200A      1.964987   201A      2.022005
     202A      2.025429   203A      2.039783   204A      2.072981
     205A      2.101169   206A      2.107054   207A      2.119548
     208A      2.126759   209A      2.131495   210A      2.135965
     211A      2.149620   212A      2.168670   213A      2.178815
     214A      2.185230   215A      2.229904   216A      2.252876
     217A      2.267082   218A      2.275963   219A      2.300924
     220A      2.308822   221A      2.327308   222A      2.332072
     223A      2.376993   224A      2.405921   225A      2.413573
     226A      2.417758   227A      2.455951   228A      2.471031
     229A      2.494143   230A      2.496919   231A      2.514025
     232A      2.526069   233A      2.545346   234A      2.545642
     235A      2.577090   236A      2.585743   237A      2.600082
     238A      2.633765   239A      2.696507   240A      2.734093
     241A      2.747025   242A      2.767090   243A      2.790601
     244A      2.794149   245A      2.803444   246A      2.829082
     247A      2.837641   248A      2.867213   249A      2.896007
     250A      2.933548   251A      2.949715   252A      2.952738
     253A      2.980862   254A      3.043791   255A      3.051201
     256A      3.069910   257A      3.076487   258A      3.132210
     259A      3.159933   260A      3.183222   261A      3.199163
     262A      3.208795   263A      3.213651   264A      3.334816
     265A      3.341162   266A      3.354572   267A      3.355063
     268A      3.363209   269A      3.458998   270A      3.494707
     271A      3.518552   272A      3.569978   273A      3.609169
     274A      3.707581   275A      3.727047   276A      3.768294
     277A      3.778722   278A      3.798564   279A      3.858276
     280A      3.871037   281A      4.004191   282A      4.109022
     283A      4.213108   284A      4.637067   285A      4.639126
     286A      4.696278   287A      4.772145   288A      4.880433
     289A      5.021749   290A      5.254975   291A      5.373511
     292A      5.495124   293A      5.610718   294A      5.716658
     295A      5.884257   296A      6.090099   297A      6.198488
     298A     18.255813   299A     18.590462   300A     19.300773
     301A     25.312187   302A     25.453676

    Final Occupation by Irrep:
              A
    DOCC [    18 ]

  @DF-RHF Final Energy:  -224.84369627814175

   => Energetics <=

    Nuclear Repulsion Energy =            164.0866959299459324
    One-Electron Energy =                -628.9319561676521744
    Two-Electron Energy =                 240.0015639595645212
    Total Energy =                       -224.8436962781417492

Computation Completed


Properties will be evaluated at   0.000000,   0.000000,   0.000000 [a0]

Properties computed using the SCF density matrix

  Nuclear Dipole Moment: [e a0]
     X:  -738.2203      Y:   892.4260      Z:  -106.4674

  Electronic Dipole Moment: [e a0]
     X:   737.4165      Y:  -892.5892      Z:   107.7998

  Dipole Moment: [e a0]
     X:    -0.8038      Y:    -0.1633      Z:     1.3324     Total:     1.5646

  Dipole Moment: [D]
     X:    -2.0431      Y:    -0.4150      Z:     3.3867     Total:     3.9769


*** tstop() called on ds1 at Tue Sep 14 16:21:05 2021
Module time:
	user time   =      15.66 seconds =       0.26 minutes
	system time =       0.32 seconds =       0.01 minutes
	total time  =          3 seconds =       0.05 minutes
Total time:
	user time   =      55.47 seconds =       0.92 minutes
	system time =       1.40 seconds =       0.02 minutes
	total time  =         12 seconds =       0.20 minutes
  Constructing Basis Sets for SAPT...

   => Loading Basis Set <=

    Name: (AUG-CC-PVDZ AUX)
    Role: RIFIT
    Keyword: DF_BASIS_SAPT
    atoms 1-2, 10-11 entry N          line   158 file /theoryfs2/ds/csargent/miniconda3/envs/cle/share/psi4/basis/aug-cc-pvdz-ri.gbs
    atoms 3-6, 12-15 entry H          line    30 file /theoryfs2/ds/csargent/miniconda3/envs/cle/share/psi4/basis/aug-cc-pvdz-ri.gbs
    atoms 7-9, 16-18 entry C          line   112 file /theoryfs2/ds/csargent/miniconda3/envs/cle/share/psi4/basis/aug-cc-pvdz-ri.gbs


  //>>>>>>>>>>>>>>>>>>>>>>>>>>>>>>>>>>>//
  //               SAPT0               //
  //<<<<<<<<<<<<<<<<<<<<<<<<<<<<<<<<<<<//


*** tstart() called on ds1
*** at Tue Sep 14 16:21:06 2021

        SAPT0
    Ed Hohenstein
     6 June 2009

      Orbital Information
  --------------------------
    NSO        =       302
    NMO        =       302
    NRI        =       904
    NOCC A     =        18
    NOCC B     =        18
    FOCC A     =         5
    FOCC B     =         5
    NVIR A     =       284
    NVIR B     =       284

    Elst10,r            =    -0.000077239009 [Eh]
    Exch10              =    -0.000000000000 [Eh]
    Exch10 (S^2)        =    -0.000000000000 [Eh]

    Iter     Energy [mEh]          dE [mEh]         Residual      Time [s]
       1      -0.00005374       0.000053736       0.083786407             1
       2      -0.00004946      -0.000004276       0.020977410             1
       3      -0.00005509       0.000005634       0.005995787             1
       4      -0.00005543       0.000000333       0.002196724             1
       5      -0.00005534      -0.000000089       0.000812942             1
       6      -0.00005529      -0.000000052       0.000227693             1
       7      -0.00005529       0.000000006       0.000110384             1
       8      -0.00005530       0.000000009       0.000032653             2
       9      -0.00005530      -0.000000002       0.000014209             2
      10      -0.00005530      -0.000000000       0.000003897             2
      11      -0.00005530       0.000000000       0.000001102             2
      12      -0.00005530       0.000000000       0.000000299             2

    CHF Iterations converged


    Iter     Energy [mEh]          dE [mEh]         Residual      Time [s]
       1      -0.00005374       0.000053736       0.083786408             0
       2      -0.00004946      -0.000004276       0.020977410             0
       3      -0.00005509       0.000005634       0.005995787             0
       4      -0.00005543       0.000000333       0.002196724             1
       5      -0.00005534      -0.000000089       0.000812942             1
       6      -0.00005529      -0.000000052       0.000227693             1
       7      -0.00005529       0.000000006       0.000110384             1
       8      -0.00005530       0.000000009       0.000032653             1
       9      -0.00005530      -0.000000002       0.000014209             1
      10      -0.00005530      -0.000000000       0.000003897             1
      11      -0.00005530       0.000000000       0.000001102             1
      12      -0.00005530       0.000000000       0.000000299             2

    CHF Iterations converged

    Ind20,r (A<-B)      =    -0.000000055300 [Eh]
    Ind20,r (B<-A)      =    -0.000000055300 [Eh]
    Ind20,r             =    -0.000000110601 [Eh]
    Exch-Ind20,r (A<-B) =     0.000000000000 [Eh]
    Exch-Ind20,r (B<-A) =     0.000000000000 [Eh]
    Exch-Ind20,r        =     0.000000000000 [Eh]
    Disp20              =    -0.000000941800 [Eh]
    Disp20 (SS)         =    -0.000000470900 [Eh]
    Disp20 (OS)         =    -0.000000470900 [Eh]
    Exch-Disp20         =     0.000000000000 [Eh]
    Exch-Disp20 (SS)    =     0.000000000000 [Eh]
    Exch-Disp20 (OS)    =     0.000000000000 [Eh]

    SAPT Results
  --------------------------------------------------------------------------------------------------------
    Electrostatics                 -0.07723901 [mEh]      -0.04846821 [kcal/mol]      -0.20279099 [kJ/mol]
      Elst10,r                     -0.07723901 [mEh]      -0.04846821 [kcal/mol]      -0.20279099 [kJ/mol]

    Exchange                       -0.00000000 [mEh]      -0.00000000 [kcal/mol]      -0.00000000 [kJ/mol]
      Exch10                       -0.00000000 [mEh]      -0.00000000 [kcal/mol]      -0.00000000 [kJ/mol]
      Exch10(S^2)                  -0.00000000 [mEh]      -0.00000000 [kcal/mol]      -0.00000000 [kJ/mol]

    Induction                      -0.00012775 [mEh]      -0.00008016 [kcal/mol]      -0.00033541 [kJ/mol]
      Ind20,r                      -0.00011060 [mEh]      -0.00006940 [kcal/mol]      -0.00029038 [kJ/mol]
      Exch-Ind20,r                  0.00000000 [mEh]       0.00000000 [kcal/mol]       0.00000000 [kJ/mol]
      delta HF,r (2)               -0.00001715 [mEh]      -0.00001076 [kcal/mol]      -0.00004502 [kJ/mol]

    Dispersion                     -0.00094180 [mEh]      -0.00059099 [kcal/mol]      -0.00247270 [kJ/mol]
      Disp20                       -0.00094180 [mEh]      -0.00059099 [kcal/mol]      -0.00247270 [kJ/mol]
      Exch-Disp20                   0.00000000 [mEh]       0.00000000 [kcal/mol]       0.00000000 [kJ/mol]
      Disp20 (SS)                  -0.00047090 [mEh]      -0.00029549 [kcal/mol]      -0.00123635 [kJ/mol]
      Disp20 (OS)                  -0.00047090 [mEh]      -0.00029549 [kcal/mol]      -0.00123635 [kJ/mol]
      Exch-Disp20 (SS)              0.00000000 [mEh]       0.00000000 [kcal/mol]       0.00000000 [kJ/mol]
      Exch-Disp20 (OS)              0.00000000 [mEh]       0.00000000 [kcal/mol]       0.00000000 [kJ/mol]

  Total HF                         -0.07736676 [mEh]      -0.04854837 [kcal/mol]      -0.20312640 [kJ/mol]
  Total SAPT0                      -0.07830856 [mEh]      -0.04913936 [kcal/mol]      -0.20559909 [kJ/mol]

  Special recipe for scaled SAPT0 (see Manual):
    Electrostatics sSAPT0          -0.07723901 [mEh]      -0.04846821 [kcal/mol]      -0.20279099 [kJ/mol]
    Exchange sSAPT0                -0.00000000 [mEh]      -0.00000000 [kcal/mol]      -0.00000000 [kJ/mol]
    Induction sSAPT0               -0.00012775 [mEh]      -0.00008016 [kcal/mol]      -0.00033541 [kJ/mol]
    Dispersion sSAPT0              -0.00094180 [mEh]      -0.00059099 [kcal/mol]      -0.00247270 [kJ/mol]
  Total sSAPT0                     -0.07830856 [mEh]      -0.04913936 [kcal/mol]      -0.20559909 [kJ/mol]
  --------------------------------------------------------------------------------------------------------

*** tstop() called on ds1 at Tue Sep 14 16:21:15 2021
Module time:
	user time   =      45.58 seconds =       0.76 minutes
	system time =       3.96 seconds =       0.07 minutes
	total time  =          9 seconds =       0.15 minutes
Total time:
	user time   =     101.77 seconds =       1.70 minutes
	system time =       5.38 seconds =       0.09 minutes
	total time  =         22 seconds =       0.37 minutes


Warning! sapt0 does not have an associated derived wavefunction.The returned wavefunction is the dimer SCF wavefunction.


    Psi4 stopped on: Tuesday, 14 September 2021 04:21PM
    Psi4 wall time for execution: 0:00:21.99

*** Psi4 exiting successfully. Buy a developer a beer!
