
    -----------------------------------------------------------------------
          Psi4: An Open-Source Ab Initio Electronic Structure Package
                               Psi4 1.4rc3

                         Git: Rev {HEAD} 080dba6


    D. G. A. Smith, L. A. Burns, A. C. Simmonett, R. M. Parrish,
    M. C. Schieber, R. Galvelis, P. Kraus, H. Kruse, R. Di Remigio,
    A. Alenaizan, A. M. James, S. Lehtola, J. P. Misiewicz, M. Scheurer,
    R. A. Shaw, J. B. Schriber, Y. Xie, Z. L. Glick, D. A. Sirianni,
    J. S. O'Brien, J. M. Waldrop, A. Kumar, E. G. Hohenstein,
    B. P. Pritchard, B. R. Brooks, H. F. Schaefer III, A. Yu. Sokolov,
    K. Patkowski, A. E. DePrince III, U. Bozkaya, R. A. King,
    F. A. Evangelista, J. M. Turney, T. D. Crawford, C. D. Sherrill,
    J. Chem. Phys. 152(18) 184108 (2020). https://doi.org/10.1063/5.0006002

                            Additional Code Authors
    E. T. Seidl, C. L. Janssen, E. F. Valeev, M. L. Leininger,
    J. F. Gonthier, R. M. Richard, H. R. McAlexander, M. Saitow, X. Wang,
    P. Verma, and M. H. Lechner

             Previous Authors, Complete List of Code Contributors,
                       and Citations for Specific Modules
    https://github.com/psi4/psi4/blob/master/codemeta.json
    https://github.com/psi4/psi4/graphs/contributors
    http://psicode.org/psi4manual/master/introduction.html#citing-psifour

    -----------------------------------------------------------------------


    Psi4 started on: Tuesday, 14 September 2021 05:13PM

    Process ID: 2541
    Host:       ds1
    PSIDATADIR: /theoryfs2/ds/csargent/miniconda3/envs/cle/share/psi4
    Memory:     500.0 MiB
    Threads:    6

  ==> Input File <==

--------------------------------------------------------------------------
# PSI4 file produced by CrystaLattE

# Generated from:               imidazole.xyz
# Psithon input for N-mer:      2mer-0+87
# Number of atoms per monomer:  [9, 9]
# Number of replicas:           1
# COM priority:                 3.809842311642e-05
# Minimum COM separations:      15.727
# Separation priority:          9.167007671114e-05
# Minimum monomer separations:  11.736
# Cutoff priority:              4.133362163949e-06
# Nuclear repulsion energy:     372.0293814532256

memory 7 GB

molecule Dimer_0_87 {
  N           -4.29309621      -3.06837431       5.30516231
  N           -2.15847371      -2.92627296       1.72037448
  H           -0.02545587      -6.35903575       2.22046452
  H           -2.68566968      -6.53260241       6.61445954
  H           -4.74388423      -0.00609006       2.75615968
  H           -1.41045540      -2.24723147       0.00000000
  C           -1.43737991      -5.07504848       2.94065891
  C           -2.76900782      -5.14609916       5.13522880
  C           -3.85955036      -1.77728198       3.21093411
--
  N            4.23457127      14.12182991     -20.87754540
  N            2.09994877      13.97972855     -17.29275757
  H           -0.03306907      17.41249134     -17.79284761
  H            2.62714474      17.58605800     -22.18684263
  H            4.68535929      11.05954565     -18.32854276
  H            1.35193047      13.30068706     -15.57238309
  C            1.37885497      16.12850408     -18.51304200
  C            2.71048288      16.19955476     -20.70761189
  C            3.80102542      12.83073757     -18.78331720
units = au
no_com
no_reorient
}

set {
  e_convergence 10
  d_convergence 10
  scf_type df
  mp2_type df
  cc_type df
  freeze_core true
}

energy('sapt0/aug-cc-pvdz')

--------------------------------------------------------------------------

  Memory set to   6.519 GiB by Python driver.

Scratch directory: /scratch/csargent/psi4.31446.79897/

Scratch directory: /scratch/csargent/psi4.31446.79897/

  //>>>>>>>>>>>>>>>>>>>>>>>>>>>>>>>>>>>//
  //              Dimer HF             //
  //<<<<<<<<<<<<<<<<<<<<<<<<<<<<<<<<<<<//


*** tstart() called on ds1
*** at Tue Sep 14 17:13:09 2021

   => Loading Basis Set <=

    Name: AUG-CC-PVDZ
    Role: ORBITAL
    Keyword: BASIS
    atoms 1-2, 10-11 entry N          line   218 file /theoryfs2/ds/csargent/miniconda3/envs/cle/share/psi4/basis/aug-cc-pvdz.gbs
    atoms 3-6, 12-15 entry H          line    40 file /theoryfs2/ds/csargent/miniconda3/envs/cle/share/psi4/basis/aug-cc-pvdz.gbs
    atoms 7-9, 16-18 entry C          line   182 file /theoryfs2/ds/csargent/miniconda3/envs/cle/share/psi4/basis/aug-cc-pvdz.gbs


         ---------------------------------------------------------
                                   SCF
               by Justin Turney, Rob Parrish, Andy Simmonett
                          and Daniel G. A. Smith
                              RHF Reference
                        6 Threads,   6675 MiB Core
         ---------------------------------------------------------

  ==> Geometry <==

    Molecular point group: c1
    Full point group: C1

    Geometry (in Bohr), charge = 0, multiplicity = 1:

       Center              X                  Y                   Z               Mass
    ------------   -----------------  -----------------  -----------------  -----------------
         N           -4.293096210000    -3.068374310000     5.305162310000    14.003074004430
         N           -2.158473710000    -2.926272960000     1.720374480000    14.003074004430
         H           -0.025455870000    -6.359035750000     2.220464520000     1.007825032230
         H           -2.685669680000    -6.532602410000     6.614459540000     1.007825032230
         H           -4.743884230000    -0.006090060000     2.756159680000     1.007825032230
         H           -1.410455400000    -2.247231470000     0.000000000000     1.007825032230
         C           -1.437379910000    -5.075048480000     2.940658910000    12.000000000000
         C           -2.769007820000    -5.146099160000     5.135228800000    12.000000000000
         C           -3.859550360000    -1.777281980000     3.210934110000    12.000000000000
         N            4.234571270000    14.121829910000   -20.877545400000    14.003074004430
         N            2.099948770000    13.979728550000   -17.292757570000    14.003074004430
         H           -0.033069070000    17.412491340000   -17.792847610000     1.007825032230
         H            2.627144740000    17.586058000000   -22.186842630000     1.007825032230
         H            4.685359290000    11.059545650000   -18.328542760000     1.007825032230
         H            1.351930470000    13.300687060000   -15.572383090000     1.007825032230
         C            1.378854970000    16.128504080000   -18.513042000000    12.000000000000
         C            2.710482880000    16.199554760000   -20.707611890000    12.000000000000
         C            3.801025420000    12.830737570000   -18.783317200000    12.000000000000

  Running in c1 symmetry.

  Rotational constants: A =      0.08219  B =      0.00141  C =      0.00140 [cm^-1]
  Rotational constants: A =   2464.04707  B =     42.29923  C =     41.97678 [MHz]
  Nuclear repulsion =  372.029381474271133

  Charge       = 0
  Multiplicity = 1
  Electrons    = 72
  Nalpha       = 36
  Nbeta        = 36

  ==> Algorithm <==

  SCF Algorithm Type is DF.
  DIIS enabled.
  MOM disabled.
  Fractional occupation disabled.
  Guess Type is SAD.
  Energy threshold   = 1.00e-10
  Density threshold  = 1.00e-10
  Integral threshold = 1.00e-12

  ==> Primary Basis <==

  Basis Set: AUG-CC-PVDZ
    Blend: AUG-CC-PVDZ
    Number of shells: 130
    Number of basis functions: 302
    Number of Cartesian functions: 322
    Spherical Harmonics?: true
    Max angular momentum: 2

   => Loading Basis Set <=

    Name: (AUG-CC-PVDZ AUX)
    Role: JKFIT
    Keyword: DF_BASIS_SCF
    atoms 1-2, 10-11 entry N          line   212 file /theoryfs2/ds/csargent/miniconda3/envs/cle/share/psi4/basis/aug-cc-pvdz-jkfit.gbs
    atoms 3-6, 12-15 entry H          line    70 file /theoryfs2/ds/csargent/miniconda3/envs/cle/share/psi4/basis/aug-cc-pvdz-jkfit.gbs
    atoms 7-9, 16-18 entry C          line   154 file /theoryfs2/ds/csargent/miniconda3/envs/cle/share/psi4/basis/aug-cc-pvdz-jkfit.gbs

  ==> Integral Setup <==

  ==> DiskDFJK: Density-Fitted J/K Matrices <==

    J tasked:                  Yes
    K tasked:                  Yes
    wK tasked:                  No
    OpenMP threads:              6
    Integrals threads:           6
    Memory [MiB]:             5006
    Algorithm:                Core
    Integral Cache:           SAVE
    Schwarz Cutoff:          1E-12
    Fitting Condition:       1E-10

   => Auxiliary Basis Set <=

  Basis Set: (AUG-CC-PVDZ AUX)
    Blend: AUG-CC-PVDZ-JKFIT
    Number of shells: 376
    Number of basis functions: 1116
    Number of Cartesian functions: 1290
    Spherical Harmonics?: true
    Max angular momentum: 3

  Minimum eigenvalue in the overlap matrix is 2.1824845051E-05.
  Reciprocal condition number of the overlap matrix is 1.8384149431E-06.
    Using symmetric orthogonalization.

  ==> Pre-Iterations <==

  SCF Guess: Superposition of Atomic Densities via on-the-fly atomic UHF (no occupation information).

   -------------------------
    Irrep   Nso     Nmo
   -------------------------
     A        302     302
   -------------------------
    Total     302     302
   -------------------------

  ==> Iterations <==

                           Total Energy        Delta E     RMS |[F,P]|

   @DF-RHF iter SAD:  -449.11714339252364   -4.49117e+02   0.00000e+00
   @DF-RHF iter   1:  -449.39565204901288   -2.78509e-01   2.30731e-03 DIIS
   @DF-RHF iter   2:  -449.61019813375896   -2.14546e-01   1.31382e-03 DIIS
   @DF-RHF iter   3:  -449.68320126992683   -7.30031e-02   2.46663e-04 DIIS
   @DF-RHF iter   4:  -449.68658223360075   -3.38096e-03   1.13330e-04 DIIS
   @DF-RHF iter   5:  -449.68718903707742   -6.06803e-04   1.78900e-05 DIIS
   @DF-RHF iter   6:  -449.68722376157774   -3.47245e-05   7.95675e-06 DIIS
   @DF-RHF iter   7:  -449.68722995022949   -6.18865e-06   3.10992e-06 DIIS
   @DF-RHF iter   8:  -449.68723141729322   -1.46706e-06   1.10064e-06 DIIS
   @DF-RHF iter   9:  -449.68723163938927   -2.22096e-07   2.66383e-07 DIIS
   @DF-RHF iter  10:  -449.68723165050608   -1.11168e-08   1.04009e-07 DIIS
   @DF-RHF iter  11:  -449.68723165217034   -1.66426e-09   4.63385e-08 DIIS
   @DF-RHF iter  12:  -449.68723165247621   -3.05874e-10   1.37729e-08 DIIS
   @DF-RHF iter  13:  -449.68723165250310   -2.68869e-11   5.09169e-09 DIIS
   @DF-RHF iter  14:  -449.68723165250697   -3.86535e-12   2.24762e-09 DIIS
   @DF-RHF iter  15:  -449.68723165250697    0.00000e+00   7.47916e-10 DIIS
   @DF-RHF iter  16:  -449.68723165250719   -2.27374e-13   3.33063e-10 DIIS
   @DF-RHF iter  17:  -449.68723165250759   -3.97904e-13   6.69335e-11 DIIS
  Energy and wave function converged.


  ==> Post-Iterations <==

    Orbital Energies [Eh]
    ---------------------

    Doubly Occupied:

       1A    -15.638816     2A    -15.638816     3A    -15.552872
       4A    -15.552872     5A    -11.302616     6A    -11.302616
       7A    -11.264757     8A    -11.264757     9A    -11.247222
      10A    -11.247222    11A     -1.354553    12A     -1.354553
      13A     -1.170773    14A     -1.170773    15A     -1.013739
      16A     -1.013739    17A     -0.826095    18A     -0.826095
      19A     -0.805368    20A     -0.805368    21A     -0.762347
      22A     -0.762347    23A     -0.611763    24A     -0.611763
      25A     -0.605647    26A     -0.605647    27A     -0.603556
      28A     -0.603556    29A     -0.572553    30A     -0.572553
      31A     -0.437104    32A     -0.437104    33A     -0.402114
      34A     -0.402114    35A     -0.322306    36A     -0.322306

    Virtual:

      37A      0.022299    38A      0.023803    39A      0.039615
      40A      0.039972    41A      0.048469    42A      0.048472
      43A      0.060083    44A      0.060424    45A      0.087396
      46A      0.087396    47A      0.099617    48A      0.099654
      49A      0.118724    50A      0.119411    51A      0.124117
      52A      0.124140    53A      0.130114    54A      0.132367
      55A      0.132389    56A      0.132966    57A      0.139428
      58A      0.139431    59A      0.155042    60A      0.155063
      61A      0.155862    62A      0.157328    63A      0.170718
      64A      0.170841    65A      0.176418    66A      0.176419
      67A      0.185242    68A      0.185357    69A      0.209900
      70A      0.209900    71A      0.218675    72A      0.218697
      73A      0.230753    74A      0.230768    75A      0.239774
      76A      0.239774    77A      0.259817    78A      0.260000
      79A      0.266311    80A      0.266323    81A      0.276356
      82A      0.276356    83A      0.299965    84A      0.300169
      85A      0.312632    86A      0.312734    87A      0.336587
      88A      0.336749    89A      0.359692    90A      0.360011
      91A      0.368458    92A      0.369469    93A      0.377090
      94A      0.379041    95A      0.386517    96A      0.386744
      97A      0.395284    98A      0.395608    99A      0.415339
     100A      0.415472   101A      0.427130   102A      0.427744
     103A      0.450364   104A      0.450368   105A      0.464581
     106A      0.464591   107A      0.479459   108A      0.479467
     109A      0.484712   110A      0.484718   111A      0.486521
     112A      0.486556   113A      0.549832   114A      0.550148
     115A      0.554673   116A      0.554792   117A      0.566621
     118A      0.566626   119A      0.574666   120A      0.574749
     121A      0.592500   122A      0.592576   123A      0.597195
     124A      0.597283   125A      0.614499   126A      0.614505
     127A      0.634646   128A      0.635292   129A      0.650862
     130A      0.650881   131A      0.667660   132A      0.667685
     133A      0.669698   134A      0.669730   135A      0.675938
     136A      0.676915   137A      0.682289   138A      0.682345
     139A      0.713024   140A      0.713047   141A      0.724025
     142A      0.724031   143A      0.739527   144A      0.739647
     145A      0.761074   146A      0.761076   147A      0.765758
     148A      0.765772   149A      0.789203   150A      0.789349
     151A      0.791868   152A      0.791869   153A      0.807985
     154A      0.808097   155A      0.858701   156A      0.858782
     157A      0.869726   158A      0.869882   159A      0.884130
     160A      0.884196   161A      0.888316   162A      0.888317
     163A      0.952701   164A      0.952706   165A      0.974938
     166A      0.975522   167A      0.996459   168A      0.996942
     169A      1.009081   170A      1.009113   171A      1.015805
     172A      1.015808   173A      1.028864   174A      1.029106
     175A      1.075686   176A      1.075738   177A      1.082839
     178A      1.082870   179A      1.125377   180A      1.125381
     181A      1.138839   182A      1.138913   183A      1.147892
     184A      1.147901   185A      1.165500   186A      1.165576
     187A      1.215800   188A      1.215813   189A      1.259084
     190A      1.259099   191A      1.300952   192A      1.300955
     193A      1.382990   194A      1.383548   195A      1.396459
     196A      1.396580   197A      1.449468   198A      1.449477
     199A      1.500999   200A      1.502323   201A      1.516734
     202A      1.516746   203A      1.572519   204A      1.572533
     205A      1.572696   206A      1.572720   207A      1.594720
     208A      1.594759   209A      1.650519   210A      1.650519
     211A      1.669931   212A      1.669938   213A      1.703705
     214A      1.703715   215A      1.722733   216A      1.722734
     217A      1.781035   218A      1.781035   219A      1.797463
     220A      1.797488   221A      1.805507   222A      1.805510
     223A      1.863255   224A      1.863344   225A      1.879669
     226A      1.879801   227A      1.922712   228A      1.922712
     229A      1.963286   230A      1.963333   231A      2.020126
     232A      2.020493   233A      2.023698   234A      2.023782
     235A      2.071285   236A      2.071360   237A      2.105382
     238A      2.105465   239A      2.125160   240A      2.125165
     241A      2.134369   242A      2.134373   243A      2.167015
     244A      2.167030   245A      2.177113   246A      2.177146
     247A      2.265386   248A      2.265390   249A      2.274258
     250A      2.274279   251A      2.299183   252A      2.299189
     253A      2.330371   254A      2.330383   255A      2.416151
     256A      2.416155   257A      2.494926   258A      2.495401
     259A      2.512344   260A      2.512387   261A      2.543139
     262A      2.543960   263A      2.584069   264A      2.584150
     265A      2.632129   266A      2.632133   267A      2.732502
     268A      2.732517   269A      2.745352   270A      2.745353
     271A      2.765431   272A      2.765495   273A      2.792473
     274A      2.792485   275A      2.801708   276A      2.801861
     277A      2.835895   278A      2.835967   279A      2.865506
     280A      2.865507   281A      2.950870   282A      2.951231
     283A      2.979181   284A      2.979218   285A      3.049569
     286A      3.049599   287A      3.068274   288A      3.068276
     289A      3.197187   290A      3.197758   291A      3.207118
     292A      3.207134   293A      3.333075   294A      3.333141
     295A      3.352913   296A      3.352926   297A      3.516900
     298A      3.516907   299A      3.766608   300A      3.766662
     301A      4.107376   302A      4.107377

    Final Occupation by Irrep:
              A
    DOCC [    36 ]

  @DF-RHF Final Energy:  -449.68723165250759

   => Energetics <=

    Nuclear Repulsion Energy =            372.0293814742711334
    One-Electron Energy =               -1345.4564185330793862
    Two-Electron Energy =                 523.7398054063007748
    Total Energy =                       -449.6872316525075348

Computation Completed


Properties will be evaluated at   0.000000,   0.000000,   0.000000 [a0]

Properties computed using the SCF density matrix

  Nuclear Dipole Moment: [e a0]
     X:    -2.1069      Y:   397.9244      Z:  -560.6058

  Electronic Dipole Moment: [e a0]
     X:     2.1069      Y:  -397.9244      Z:   560.6058

  Dipole Moment: [e a0]
     X:     0.0000      Y:    -0.0000      Z:    -0.0000     Total:     0.0000

  Dipole Moment: [D]
     X:     0.0000      Y:    -0.0000      Z:    -0.0000     Total:     0.0000


*** tstop() called on ds1 at Tue Sep 14 17:13:14 2021
Module time:
	user time   =      23.46 seconds =       0.39 minutes
	system time =       0.59 seconds =       0.01 minutes
	total time  =          5 seconds =       0.08 minutes
Total time:
	user time   =      23.46 seconds =       0.39 minutes
	system time =       0.59 seconds =       0.01 minutes
	total time  =          5 seconds =       0.08 minutes

  //>>>>>>>>>>>>>>>>>>>>>>>>>>>>>>>>>>>//
  //            Monomer A HF           //
  //<<<<<<<<<<<<<<<<<<<<<<<<<<<<<<<<<<<//


*** tstart() called on ds1
*** at Tue Sep 14 17:13:14 2021

   => Loading Basis Set <=

    Name: AUG-CC-PVDZ
    Role: ORBITAL
    Keyword: BASIS
    atoms 1-2, 10-11 entry N          line   218 file /theoryfs2/ds/csargent/miniconda3/envs/cle/share/psi4/basis/aug-cc-pvdz.gbs
    atoms 3-6, 12-15 entry H          line    40 file /theoryfs2/ds/csargent/miniconda3/envs/cle/share/psi4/basis/aug-cc-pvdz.gbs
    atoms 7-9, 16-18 entry C          line   182 file /theoryfs2/ds/csargent/miniconda3/envs/cle/share/psi4/basis/aug-cc-pvdz.gbs


         ---------------------------------------------------------
                                   SCF
               by Justin Turney, Rob Parrish, Andy Simmonett
                          and Daniel G. A. Smith
                              RHF Reference
                        6 Threads,   6675 MiB Core
         ---------------------------------------------------------

  ==> Geometry <==

    Molecular point group: c1
    Full point group: C1

    Geometry (in Bohr), charge = 0, multiplicity = 1:

       Center              X                  Y                   Z               Mass
    ------------   -----------------  -----------------  -----------------  -----------------
         N           -4.293096210000    -3.068374310000     5.305162310000    14.003074004430
         N           -2.158473710000    -2.926272960000     1.720374480000    14.003074004430
         H           -0.025455870000    -6.359035750000     2.220464520000     1.007825032230
         H           -2.685669680000    -6.532602410000     6.614459540000     1.007825032230
         H           -4.743884230000    -0.006090060000     2.756159680000     1.007825032230
         H           -1.410455400000    -2.247231470000     0.000000000000     1.007825032230
         C           -1.437379910000    -5.075048480000     2.940658910000    12.000000000000
         C           -2.769007820000    -5.146099160000     5.135228800000    12.000000000000
         C           -3.859550360000    -1.777281980000     3.210934110000    12.000000000000
      Gh(N)           4.234571270000    14.121829910000   -20.877545400000    14.003074004430
      Gh(N)           2.099948770000    13.979728550000   -17.292757570000    14.003074004430
      Gh(H)          -0.033069070000    17.412491340000   -17.792847610000     1.007825032230
      Gh(H)           2.627144740000    17.586058000000   -22.186842630000     1.007825032230
      Gh(H)           4.685359290000    11.059545650000   -18.328542760000     1.007825032230
      Gh(H)           1.351930470000    13.300687060000   -15.572383090000     1.007825032230
      Gh(C)           1.378854970000    16.128504080000   -18.513042000000    12.000000000000
      Gh(C)           2.710482880000    16.199554760000   -20.707611890000    12.000000000000
      Gh(C)           3.801025420000    12.830737570000   -18.783317200000    12.000000000000

  Running in c1 symmetry.

  Rotational constants: A =      0.08219  B =      0.00141  C =      0.00140 [cm^-1]
  Rotational constants: A =   2464.04707  B =     42.29923  C =     41.97678 [MHz]
  Nuclear repulsion =  164.086695994184396

  Charge       = 0
  Multiplicity = 1
  Electrons    = 36
  Nalpha       = 18
  Nbeta        = 18

  ==> Algorithm <==

  SCF Algorithm Type is DF.
  DIIS enabled.
  MOM disabled.
  Fractional occupation disabled.
  Guess Type is SAD.
  Energy threshold   = 1.00e-10
  Density threshold  = 1.00e-10
  Integral threshold = 1.00e-12

  ==> Primary Basis <==

  Basis Set: AUG-CC-PVDZ
    Blend: AUG-CC-PVDZ
    Number of shells: 130
    Number of basis functions: 302
    Number of Cartesian functions: 322
    Spherical Harmonics?: true
    Max angular momentum: 2

   => Loading Basis Set <=

    Name: (AUG-CC-PVDZ AUX)
    Role: JKFIT
    Keyword: DF_BASIS_SCF
    atoms 1-2, 10-11 entry N          line   212 file /theoryfs2/ds/csargent/miniconda3/envs/cle/share/psi4/basis/aug-cc-pvdz-jkfit.gbs
    atoms 3-6, 12-15 entry H          line    70 file /theoryfs2/ds/csargent/miniconda3/envs/cle/share/psi4/basis/aug-cc-pvdz-jkfit.gbs
    atoms 7-9, 16-18 entry C          line   154 file /theoryfs2/ds/csargent/miniconda3/envs/cle/share/psi4/basis/aug-cc-pvdz-jkfit.gbs

  ==> Integral Setup <==

  ==> DiskDFJK: Density-Fitted J/K Matrices <==

    J tasked:                  Yes
    K tasked:                  Yes
    wK tasked:                  No
    OpenMP threads:              6
    Integrals threads:           6
    Memory [MiB]:             5006
    Algorithm:                Core
    Integral Cache:           LOAD
    Schwarz Cutoff:          1E-12
    Fitting Condition:       1E-10

   => Auxiliary Basis Set <=

  Basis Set: (AUG-CC-PVDZ AUX)
    Blend: AUG-CC-PVDZ-JKFIT
    Number of shells: 376
    Number of basis functions: 1116
    Number of Cartesian functions: 1290
    Spherical Harmonics?: true
    Max angular momentum: 3

  Minimum eigenvalue in the overlap matrix is 2.1824845051E-05.
  Reciprocal condition number of the overlap matrix is 1.8384149431E-06.
    Using symmetric orthogonalization.

  ==> Pre-Iterations <==

  SCF Guess: Superposition of Atomic Densities via on-the-fly atomic UHF (no occupation information).

   -------------------------
    Irrep   Nso     Nmo
   -------------------------
     A        302     302
   -------------------------
    Total     302     302
   -------------------------

  ==> Iterations <==

                           Total Energy        Delta E     RMS |[F,P]|

   @DF-RHF iter SAD:  -224.55857169537370   -2.24559e+02   0.00000e+00
   @DF-RHF iter   1:  -224.69806465347492   -1.39493e-01   1.63067e-03 DIIS
   @DF-RHF iter   2:  -224.80532027239889   -1.07256e-01   9.27384e-04 DIIS
   @DF-RHF iter   3:  -224.84168817578683   -3.63679e-02   1.74019e-04 DIIS
   @DF-RHF iter   4:  -224.84337342783746   -1.68525e-03   7.98972e-05 DIIS
   @DF-RHF iter   5:  -224.84367500853210   -3.01581e-04   1.26452e-05 DIIS
   @DF-RHF iter   6:  -224.84369234556257   -1.73370e-05   5.61871e-06 DIIS
   @DF-RHF iter   7:  -224.84369543363135   -3.08807e-06   2.19503e-06 DIIS
   @DF-RHF iter   8:  -224.84369616554955   -7.31918e-07   7.77587e-07 DIIS
   @DF-RHF iter   9:  -224.84369627634322   -1.10794e-07   1.87961e-07 DIIS
   @DF-RHF iter  10:  -224.84369628187906   -5.53584e-09   7.33125e-08 DIIS
   @DF-RHF iter  11:  -224.84369628270551   -8.26446e-10   3.26918e-08 DIIS
   @DF-RHF iter  12:  -224.84369628285765   -1.52141e-10   9.70884e-09 DIIS
   @DF-RHF iter  13:  -224.84369628287084   -1.31877e-11   3.58840e-09 DIIS
   @DF-RHF iter  14:  -224.84369628287220   -1.36424e-12   1.58275e-09 DIIS
   @DF-RHF iter  15:  -224.84369628287280   -5.96856e-13   5.27556e-10 DIIS
   @DF-RHF iter  16:  -224.84369628287311   -3.12639e-13   2.34517e-10 DIIS
   @DF-RHF iter  17:  -224.84369628287280    3.12639e-13   4.71142e-11 DIIS
  Energy and wave function converged.


  ==> Post-Iterations <==

    Orbital Energies [Eh]
    ---------------------

    Doubly Occupied:

       1A    -15.637071     2A    -15.551216     3A    -11.300916
       4A    -11.263160     5A    -11.245653     6A     -1.352867
       7A     -1.169098     8A     -1.012098     9A     -0.824390
      10A     -0.803731    11A     -0.760666    12A     -0.610096
      13A     -0.603958    14A     -0.601922    15A     -0.570942
      16A     -0.435483    17A     -0.400464    18A     -0.320685

    Virtual:

      19A      0.020940    20A      0.025365    21A      0.038371
      22A      0.041478    23A      0.042247    24A      0.049999
      25A      0.061825    26A      0.065824    27A      0.075027
      28A      0.084551    29A      0.089096    30A      0.095934
      31A      0.101398    32A      0.120735    33A      0.123109
      34A      0.123622    35A      0.125322    36A      0.125592
      37A      0.125721    38A      0.132329    39A      0.133569
      40A      0.133775    41A      0.136704    42A      0.140942
      43A      0.155393    44A      0.156503    45A      0.158873
      46A      0.171991    47A      0.178189    48A      0.187212
      49A      0.190352    50A      0.206069    51A      0.207880
      52A      0.211094    53A      0.211559    54A      0.218775
      55A      0.220269    56A      0.221149    57A      0.231507
      58A      0.232360    59A      0.241408    60A      0.261611
      61A      0.267808    62A      0.270476    63A      0.277911
      64A      0.297832    65A      0.301737    66A      0.304925
      67A      0.314434    68A      0.317709    69A      0.338205
      70A      0.358529    71A      0.361499    72A      0.370751
      73A      0.374134    74A      0.379855    75A      0.388296
      76A      0.391870    77A      0.397099    78A      0.417020
      79A      0.426023    80A      0.429057    81A      0.433771
      82A      0.438919    83A      0.447338    84A      0.450451
      85A      0.452059    86A      0.466346    87A      0.466570
      88A      0.479479    89A      0.481229    90A      0.486284
      91A      0.488151    92A      0.515872    93A      0.519001
      94A      0.534291    95A      0.536565    96A      0.541612
      97A      0.551729    98A      0.554121    99A      0.556392
     100A      0.568281   101A      0.576477   102A      0.577703
     103A      0.585997   104A      0.594250   105A      0.598940
     106A      0.605094   107A      0.610399   108A      0.616078
     109A      0.616712   110A      0.636559   111A      0.638325
     112A      0.652507   113A      0.669282   114A      0.671338
     115A      0.676099   116A      0.678213   117A      0.682291
     118A      0.683877   119A      0.709711   120A      0.714699
     121A      0.725758   122A      0.734693   123A      0.741242
     124A      0.754494   125A      0.762699   126A      0.767400
     127A      0.790933   128A      0.793606   129A      0.796680
     130A      0.808986   131A      0.809749   132A      0.810756
     133A      0.821903   134A      0.835251   135A      0.858185
     136A      0.860404   137A      0.871429   138A      0.885047
     139A      0.885776   140A      0.889823   141A      0.908237
     142A      0.918145   143A      0.925460   144A      0.954351
     145A      0.967214   146A      0.976981   147A      0.990367
     148A      0.998371   149A      1.010706   150A      1.013967
     151A      1.017405   152A      1.030680   153A      1.057616
     154A      1.077028   155A      1.077363   156A      1.084552
     157A      1.102141   158A      1.114529   159A      1.126985
     160A      1.130827   161A      1.140497   162A      1.149566
     163A      1.167173   164A      1.169461   165A      1.172526
     166A      1.196021   167A      1.209026   168A      1.217446
     169A      1.260722   170A      1.276535   171A      1.289107
     172A      1.295545   173A      1.302539   174A      1.311048
     175A      1.316567   176A      1.346089   177A      1.382476
     178A      1.385057   179A      1.398149   180A      1.451143
     181A      1.493344   182A      1.503319   183A      1.514283
     184A      1.518410   185A      1.539799   186A      1.574127
     187A      1.574285   188A      1.596383   189A      1.652159
     190A      1.659441   191A      1.671506   192A      1.705286
     193A      1.724477   194A      1.782643   195A      1.799068
     196A      1.807063   197A      1.864950   198A      1.881478
     199A      1.924391   200A      1.964988   201A      2.022009
     202A      2.025430   203A      2.038341   204A      2.072983
     205A      2.099558   206A      2.107055   207A      2.117881
     208A      2.126759   209A      2.129993   210A      2.135965
     211A      2.148120   212A      2.168671   213A      2.178815
     214A      2.183924   215A      2.228284   216A      2.251401
     217A      2.267082   218A      2.275963   219A      2.300924
     220A      2.307359   221A      2.325732   222A      2.332073
     223A      2.375314   224A      2.403863   225A      2.412053
     226A      2.417758   227A      2.454418   228A      2.469380
     229A      2.492535   230A      2.496932   231A      2.514026
     232A      2.524387   233A      2.544149   234A      2.545364
     235A      2.575576   236A      2.585745   237A      2.598609
     238A      2.633765   239A      2.694838   240A      2.734093
     241A      2.747025   242A      2.767090   243A      2.788886
     244A      2.794149   245A      2.803447   246A      2.827689
     247A      2.837645   248A      2.867213   249A      2.894395
     250A      2.932090   251A      2.948086   252A      2.952745
     253A      2.980863   254A      3.042119   255A      3.051201
     256A      3.069910   257A      3.074882   258A      3.130446
     259A      3.158283   260A      3.181745   261A      3.199173
     262A      3.208795   263A      3.212200   264A      3.334816
     265A      3.339580   266A      3.353426   267A      3.354572
     268A      3.361689   269A      3.457296   270A      3.493232
     271A      3.518552   272A      3.568141   273A      3.607759
     274A      3.705897   275A      3.725455   276A      3.768295
     277A      3.777078   278A      3.796779   279A      3.856728
     280A      3.869429   281A      4.002629   282A      4.109022
     283A      4.211381   284A      4.635544   285A      4.637591
     286A      4.694808   287A      4.770489   288A      4.878756
     289A      5.020184   290A      5.253469   291A      5.371971
     292A      5.493658   293A      5.609191   294A      5.714958
     295A      5.882629   296A      6.088289   297A      6.196884
     298A     18.254407   299A     18.588718   300A     19.299367
     301A     25.310777   302A     25.451840

    Final Occupation by Irrep:
              A
    DOCC [    18 ]

  @DF-RHF Final Energy:  -224.84369628287280

   => Energetics <=

    Nuclear Repulsion Energy =            164.0866959941843959
    One-Electron Energy =                -628.9319563514236506
    Two-Electron Energy =                 240.0015640743664278
    Total Energy =                       -224.8436962828727985

Computation Completed


Properties will be evaluated at   0.000000,   0.000000,   0.000000 [a0]

Properties computed using the SCF density matrix

  Nuclear Dipole Moment: [e a0]
     X:  -102.4221      Y:  -129.0981      Z:   128.4908

  Electronic Dipole Moment: [e a0]
     X:   103.2259      Y:   129.2613      Z:  -129.8232

  Dipole Moment: [e a0]
     X:     0.8038      Y:     0.1633      Z:    -1.3324     Total:     1.5646

  Dipole Moment: [D]
     X:     2.0431      Y:     0.4150      Z:    -3.3867     Total:     3.9769


*** tstop() called on ds1 at Tue Sep 14 17:13:17 2021
Module time:
	user time   =      16.69 seconds =       0.28 minutes
	system time =       0.33 seconds =       0.01 minutes
	total time  =          3 seconds =       0.05 minutes
Total time:
	user time   =      40.31 seconds =       0.67 minutes
	system time =       0.93 seconds =       0.02 minutes
	total time  =          8 seconds =       0.13 minutes

  //>>>>>>>>>>>>>>>>>>>>>>>>>>>>>>>>>>>//
  //            Monomer B HF           //
  //<<<<<<<<<<<<<<<<<<<<<<<<<<<<<<<<<<<//


*** tstart() called on ds1
*** at Tue Sep 14 17:13:17 2021

   => Loading Basis Set <=

    Name: AUG-CC-PVDZ
    Role: ORBITAL
    Keyword: BASIS
    atoms 1-2, 10-11 entry N          line   218 file /theoryfs2/ds/csargent/miniconda3/envs/cle/share/psi4/basis/aug-cc-pvdz.gbs
    atoms 3-6, 12-15 entry H          line    40 file /theoryfs2/ds/csargent/miniconda3/envs/cle/share/psi4/basis/aug-cc-pvdz.gbs
    atoms 7-9, 16-18 entry C          line   182 file /theoryfs2/ds/csargent/miniconda3/envs/cle/share/psi4/basis/aug-cc-pvdz.gbs


         ---------------------------------------------------------
                                   SCF
               by Justin Turney, Rob Parrish, Andy Simmonett
                          and Daniel G. A. Smith
                              RHF Reference
                        6 Threads,   6675 MiB Core
         ---------------------------------------------------------

  ==> Geometry <==

    Molecular point group: c1
    Full point group: C1

    Geometry (in Bohr), charge = 0, multiplicity = 1:

       Center              X                  Y                   Z               Mass
    ------------   -----------------  -----------------  -----------------  -----------------
      Gh(N)          -4.293096210000    -3.068374310000     5.305162310000    14.003074004430
      Gh(N)          -2.158473710000    -2.926272960000     1.720374480000    14.003074004430
      Gh(H)          -0.025455870000    -6.359035750000     2.220464520000     1.007825032230
      Gh(H)          -2.685669680000    -6.532602410000     6.614459540000     1.007825032230
      Gh(H)          -4.743884230000    -0.006090060000     2.756159680000     1.007825032230
      Gh(H)          -1.410455400000    -2.247231470000     0.000000000000     1.007825032230
      Gh(C)          -1.437379910000    -5.075048480000     2.940658910000    12.000000000000
      Gh(C)          -2.769007820000    -5.146099160000     5.135228800000    12.000000000000
      Gh(C)          -3.859550360000    -1.777281980000     3.210934110000    12.000000000000
         N            4.234571270000    14.121829910000   -20.877545400000    14.003074004430
         N            2.099948770000    13.979728550000   -17.292757570000    14.003074004430
         H           -0.033069070000    17.412491340000   -17.792847610000     1.007825032230
         H            2.627144740000    17.586058000000   -22.186842630000     1.007825032230
         H            4.685359290000    11.059545650000   -18.328542760000     1.007825032230
         H            1.351930470000    13.300687060000   -15.572383090000     1.007825032230
         C            1.378854970000    16.128504080000   -18.513042000000    12.000000000000
         C            2.710482880000    16.199554760000   -20.707611890000    12.000000000000
         C            3.801025420000    12.830737570000   -18.783317200000    12.000000000000

  Running in c1 symmetry.

  Rotational constants: A =      0.08219  B =      0.00141  C =      0.00140 [cm^-1]
  Rotational constants: A =   2464.04707  B =     42.29923  C =     41.97678 [MHz]
  Nuclear repulsion =  164.086695877480906

  Charge       = 0
  Multiplicity = 1
  Electrons    = 36
  Nalpha       = 18
  Nbeta        = 18

  ==> Algorithm <==

  SCF Algorithm Type is DF.
  DIIS enabled.
  MOM disabled.
  Fractional occupation disabled.
  Guess Type is SAD.
  Energy threshold   = 1.00e-10
  Density threshold  = 1.00e-10
  Integral threshold = 1.00e-12

  ==> Primary Basis <==

  Basis Set: AUG-CC-PVDZ
    Blend: AUG-CC-PVDZ
    Number of shells: 130
    Number of basis functions: 302
    Number of Cartesian functions: 322
    Spherical Harmonics?: true
    Max angular momentum: 2

   => Loading Basis Set <=

    Name: (AUG-CC-PVDZ AUX)
    Role: JKFIT
    Keyword: DF_BASIS_SCF
    atoms 1-2, 10-11 entry N          line   212 file /theoryfs2/ds/csargent/miniconda3/envs/cle/share/psi4/basis/aug-cc-pvdz-jkfit.gbs
    atoms 3-6, 12-15 entry H          line    70 file /theoryfs2/ds/csargent/miniconda3/envs/cle/share/psi4/basis/aug-cc-pvdz-jkfit.gbs
    atoms 7-9, 16-18 entry C          line   154 file /theoryfs2/ds/csargent/miniconda3/envs/cle/share/psi4/basis/aug-cc-pvdz-jkfit.gbs

  ==> Integral Setup <==

  ==> DiskDFJK: Density-Fitted J/K Matrices <==

    J tasked:                  Yes
    K tasked:                  Yes
    wK tasked:                  No
    OpenMP threads:              6
    Integrals threads:           6
    Memory [MiB]:             5006
    Algorithm:                Core
    Integral Cache:           LOAD
    Schwarz Cutoff:          1E-12
    Fitting Condition:       1E-10

   => Auxiliary Basis Set <=

  Basis Set: (AUG-CC-PVDZ AUX)
    Blend: AUG-CC-PVDZ-JKFIT
    Number of shells: 376
    Number of basis functions: 1116
    Number of Cartesian functions: 1290
    Spherical Harmonics?: true
    Max angular momentum: 3

  Minimum eigenvalue in the overlap matrix is 2.1824845051E-05.
  Reciprocal condition number of the overlap matrix is 1.8384149431E-06.
    Using symmetric orthogonalization.

  ==> Pre-Iterations <==

  SCF Guess: Superposition of Atomic Densities via on-the-fly atomic UHF (no occupation information).

   -------------------------
    Irrep   Nso     Nmo
   -------------------------
     A        302     302
   -------------------------
    Total     302     302
   -------------------------

  ==> Iterations <==

                           Total Energy        Delta E     RMS |[F,P]|

   @DF-RHF iter SAD:  -224.55857168365381   -2.24559e+02   0.00000e+00
   @DF-RHF iter   1:  -224.69806465396499   -1.39493e-01   1.63067e-03 DIIS
   @DF-RHF iter   2:  -224.80532027248864   -1.07256e-01   9.27384e-04 DIIS
   @DF-RHF iter   3:  -224.84168817590444   -3.63679e-02   1.74019e-04 DIIS
   @DF-RHF iter   4:  -224.84337342796579   -1.68525e-03   7.98972e-05 DIIS
   @DF-RHF iter   5:  -224.84367500866145   -3.01581e-04   1.26452e-05 DIIS
   @DF-RHF iter   6:  -224.84369234569223   -1.73370e-05   5.61871e-06 DIIS
   @DF-RHF iter   7:  -224.84369543376079   -3.08807e-06   2.19503e-06 DIIS
   @DF-RHF iter   8:  -224.84369616567898   -7.31918e-07   7.77587e-07 DIIS
   @DF-RHF iter   9:  -224.84369627647300   -1.10794e-07   1.87961e-07 DIIS
   @DF-RHF iter  10:  -224.84369628200869   -5.53570e-09   7.33125e-08 DIIS
   @DF-RHF iter  11:  -224.84369628283491   -8.26219e-10   3.26918e-08 DIIS
   @DF-RHF iter  12:  -224.84369628298708   -1.52170e-10   9.70884e-09 DIIS
   @DF-RHF iter  13:  -224.84369628299999   -1.29035e-11   3.58840e-09 DIIS
   @DF-RHF iter  14:  -224.84369628300189   -1.90425e-12   1.58275e-09 DIIS
   @DF-RHF iter  15:  -224.84369628300215   -2.55795e-13   5.27556e-10 DIIS
   @DF-RHF iter  16:  -224.84369628300200    1.42109e-13   2.34516e-10 DIIS
   @DF-RHF iter  17:  -224.84369628300234   -3.41061e-13   4.71137e-11 DIIS
  Energy and wave function converged.


  ==> Post-Iterations <==

    Orbital Energies [Eh]
    ---------------------

    Doubly Occupied:

       1A    -15.637071     2A    -15.551216     3A    -11.300916
       4A    -11.263160     5A    -11.245653     6A     -1.352867
       7A     -1.169098     8A     -1.012098     9A     -0.824390
      10A     -0.803731    11A     -0.760666    12A     -0.610096
      13A     -0.603958    14A     -0.601922    15A     -0.570942
      16A     -0.435483    17A     -0.400464    18A     -0.320685

    Virtual:

      19A      0.020940    20A      0.025365    21A      0.038371
      22A      0.041478    23A      0.042247    24A      0.049999
      25A      0.061825    26A      0.065824    27A      0.075027
      28A      0.084551    29A      0.089096    30A      0.095934
      31A      0.101398    32A      0.120735    33A      0.123109
      34A      0.123622    35A      0.125322    36A      0.125592
      37A      0.125721    38A      0.132329    39A      0.133569
      40A      0.133775    41A      0.136704    42A      0.140942
      43A      0.155393    44A      0.156503    45A      0.158873
      46A      0.171991    47A      0.178189    48A      0.187212
      49A      0.190352    50A      0.206069    51A      0.207880
      52A      0.211094    53A      0.211559    54A      0.218775
      55A      0.220269    56A      0.221149    57A      0.231507
      58A      0.232360    59A      0.241408    60A      0.261611
      61A      0.267808    62A      0.270476    63A      0.277911
      64A      0.297832    65A      0.301737    66A      0.304925
      67A      0.314434    68A      0.317709    69A      0.338205
      70A      0.358529    71A      0.361499    72A      0.370751
      73A      0.374134    74A      0.379855    75A      0.388296
      76A      0.391870    77A      0.397099    78A      0.417020
      79A      0.426023    80A      0.429057    81A      0.433771
      82A      0.438919    83A      0.447338    84A      0.450451
      85A      0.452059    86A      0.466346    87A      0.466570
      88A      0.479479    89A      0.481229    90A      0.486284
      91A      0.488151    92A      0.515872    93A      0.519001
      94A      0.534291    95A      0.536565    96A      0.541612
      97A      0.551729    98A      0.554121    99A      0.556392
     100A      0.568281   101A      0.576477   102A      0.577703
     103A      0.585997   104A      0.594250   105A      0.598940
     106A      0.605094   107A      0.610399   108A      0.616078
     109A      0.616712   110A      0.636559   111A      0.638325
     112A      0.652507   113A      0.669282   114A      0.671338
     115A      0.676099   116A      0.678213   117A      0.682291
     118A      0.683877   119A      0.709711   120A      0.714699
     121A      0.725758   122A      0.734693   123A      0.741242
     124A      0.754494   125A      0.762699   126A      0.767400
     127A      0.790933   128A      0.793606   129A      0.796680
     130A      0.808986   131A      0.809749   132A      0.810756
     133A      0.821903   134A      0.835251   135A      0.858185
     136A      0.860404   137A      0.871428   138A      0.885047
     139A      0.885776   140A      0.889823   141A      0.908237
     142A      0.918145   143A      0.925460   144A      0.954351
     145A      0.967214   146A      0.976981   147A      0.990367
     148A      0.998371   149A      1.010706   150A      1.013967
     151A      1.017405   152A      1.030680   153A      1.057616
     154A      1.077028   155A      1.077363   156A      1.084552
     157A      1.102141   158A      1.114529   159A      1.126985
     160A      1.130827   161A      1.140497   162A      1.149566
     163A      1.167173   164A      1.169461   165A      1.172526
     166A      1.196021   167A      1.209026   168A      1.217446
     169A      1.260722   170A      1.276535   171A      1.289107
     172A      1.295545   173A      1.302539   174A      1.311048
     175A      1.316567   176A      1.346089   177A      1.382476
     178A      1.385057   179A      1.398149   180A      1.451143
     181A      1.493344   182A      1.503319   183A      1.514283
     184A      1.518410   185A      1.539799   186A      1.574127
     187A      1.574285   188A      1.596383   189A      1.652159
     190A      1.659441   191A      1.671506   192A      1.705286
     193A      1.724477   194A      1.782643   195A      1.799068
     196A      1.807063   197A      1.864950   198A      1.881478
     199A      1.924391   200A      1.964988   201A      2.022009
     202A      2.025430   203A      2.038341   204A      2.072983
     205A      2.099558   206A      2.107055   207A      2.117881
     208A      2.126759   209A      2.129993   210A      2.135965
     211A      2.148120   212A      2.168671   213A      2.178815
     214A      2.183924   215A      2.228284   216A      2.251401
     217A      2.267082   218A      2.275963   219A      2.300924
     220A      2.307359   221A      2.325732   222A      2.332073
     223A      2.375314   224A      2.403863   225A      2.412053
     226A      2.417758   227A      2.454418   228A      2.469380
     229A      2.492535   230A      2.496932   231A      2.514026
     232A      2.524387   233A      2.544149   234A      2.545364
     235A      2.575576   236A      2.585745   237A      2.598609
     238A      2.633765   239A      2.694838   240A      2.734093
     241A      2.747025   242A      2.767090   243A      2.788886
     244A      2.794149   245A      2.803447   246A      2.827689
     247A      2.837645   248A      2.867213   249A      2.894395
     250A      2.932090   251A      2.948086   252A      2.952745
     253A      2.980863   254A      3.042119   255A      3.051201
     256A      3.069910   257A      3.074882   258A      3.130446
     259A      3.158283   260A      3.181745   261A      3.199173
     262A      3.208795   263A      3.212200   264A      3.334816
     265A      3.339580   266A      3.353426   267A      3.354572
     268A      3.361689   269A      3.457296   270A      3.493232
     271A      3.518552   272A      3.568141   273A      3.607759
     274A      3.705897   275A      3.725455   276A      3.768295
     277A      3.777078   278A      3.796779   279A      3.856728
     280A      3.869429   281A      4.002629   282A      4.109022
     283A      4.211381   284A      4.635544   285A      4.637591
     286A      4.694808   287A      4.770489   288A      4.878756
     289A      5.020184   290A      5.253469   291A      5.371971
     292A      5.493658   293A      5.609191   294A      5.714958
     295A      5.882629   296A      6.088289   297A      6.196884
     298A     18.254407   299A     18.588718   300A     19.299367
     301A     25.310777   302A     25.451840

    Final Occupation by Irrep:
              A
    DOCC [    18 ]

  @DF-RHF Final Energy:  -224.84369628300234

   => Energetics <=

    Nuclear Repulsion Energy =            164.0866958774809063
    One-Electron Energy =                -628.9319561215820613
    Two-Electron Energy =                 240.0015639610988103
    Total Energy =                       -224.8436962830023447

Computation Completed


Properties will be evaluated at   0.000000,   0.000000,   0.000000 [a0]

Properties computed using the SCF density matrix

  Nuclear Dipole Moment: [e a0]
     X:   100.3152      Y:   527.0225      Z:  -689.0966

  Electronic Dipole Moment: [e a0]
     X:  -101.1190      Y:  -527.1857      Z:   690.4290

  Dipole Moment: [e a0]
     X:    -0.8038      Y:    -0.1633      Z:     1.3324     Total:     1.5646

  Dipole Moment: [D]
     X:    -2.0431      Y:    -0.4150      Z:     3.3867     Total:     3.9769


*** tstop() called on ds1 at Tue Sep 14 17:13:21 2021
Module time:
	user time   =      16.99 seconds =       0.28 minutes
	system time =       0.37 seconds =       0.01 minutes
	total time  =          4 seconds =       0.07 minutes
Total time:
	user time   =      57.32 seconds =       0.96 minutes
	system time =       1.30 seconds =       0.02 minutes
	total time  =         12 seconds =       0.20 minutes
  Constructing Basis Sets for SAPT...

   => Loading Basis Set <=

    Name: (AUG-CC-PVDZ AUX)
    Role: RIFIT
    Keyword: DF_BASIS_SAPT
    atoms 1-2, 10-11 entry N          line   158 file /theoryfs2/ds/csargent/miniconda3/envs/cle/share/psi4/basis/aug-cc-pvdz-ri.gbs
    atoms 3-6, 12-15 entry H          line    30 file /theoryfs2/ds/csargent/miniconda3/envs/cle/share/psi4/basis/aug-cc-pvdz-ri.gbs
    atoms 7-9, 16-18 entry C          line   112 file /theoryfs2/ds/csargent/miniconda3/envs/cle/share/psi4/basis/aug-cc-pvdz-ri.gbs


  //>>>>>>>>>>>>>>>>>>>>>>>>>>>>>>>>>>>//
  //               SAPT0               //
  //<<<<<<<<<<<<<<<<<<<<<<<<<<<<<<<<<<<//


*** tstart() called on ds1
*** at Tue Sep 14 17:13:21 2021

        SAPT0
    Ed Hohenstein
     6 June 2009

      Orbital Information
  --------------------------
    NSO        =       302
    NMO        =       302
    NRI        =       904
    NOCC A     =        18
    NOCC B     =        18
    FOCC A     =         5
    FOCC B     =         5
    NVIR A     =       284
    NVIR B     =       284

    Elst10,r            =     0.000161706749 [Eh]
    Exch10              =     0.000000000001 [Eh]
    Exch10 (S^2)        =     0.000000000001 [Eh]

    Iter     Energy [mEh]          dE [mEh]         Residual      Time [s]
       1      -0.00039028       0.000390284       0.202210399             0
       2      -0.00037019      -0.000020098       0.055714741             0
       3      -0.00041049       0.000040309       0.019606196             0
       4      -0.00041416       0.000003669       0.006995536             1
       5      -0.00041326      -0.000000899       0.003504772             1
       6      -0.00041278      -0.000000484       0.001108523             1
       7      -0.00041290       0.000000122       0.000417499             1
       8      -0.00041298       0.000000073       0.000119324             1
       9      -0.00041296      -0.000000013       0.000045359             1
      10      -0.00041296      -0.000000007       0.000011303             1
      11      -0.00041296       0.000000002       0.000004029             1
      12      -0.00041296       0.000000000       0.000001256             2
      13      -0.00041296      -0.000000000       0.000000500             2

    CHF Iterations converged


    Iter     Energy [mEh]          dE [mEh]         Residual      Time [s]
       1      -0.00039028       0.000390284       0.202210400             0
       2      -0.00037019      -0.000020098       0.055714741             0
       3      -0.00041049       0.000040309       0.019606196             0
       4      -0.00041416       0.000003669       0.006995536             0
       5      -0.00041326      -0.000000899       0.003504772             0
       6      -0.00041278      -0.000000484       0.001108523             0
       7      -0.00041290       0.000000122       0.000417499             1
       8      -0.00041298       0.000000073       0.000119324             1
       9      -0.00041296      -0.000000013       0.000045359             1
      10      -0.00041296      -0.000000007       0.000011303             1
      11      -0.00041296       0.000000002       0.000004029             1
      12      -0.00041296       0.000000000       0.000001256             1
      13      -0.00041296      -0.000000000       0.000000500             1

    CHF Iterations converged

    Ind20,r (A<-B)      =    -0.000000412957 [Eh]
    Ind20,r (B<-A)      =    -0.000000412957 [Eh]
    Ind20,r             =    -0.000000825914 [Eh]
    Exch-Ind20,r (A<-B) =     0.000000000003 [Eh]
    Exch-Ind20,r (B<-A) =     0.000000000003 [Eh]
    Exch-Ind20,r        =     0.000000000005 [Eh]
    Disp20              =    -0.000002185584 [Eh]
    Disp20 (SS)         =    -0.000001092792 [Eh]
    Disp20 (OS)         =    -0.000001092792 [Eh]
    Exch-Disp20         =     0.000000000001 [Eh]
    Exch-Disp20 (SS)    =     0.000000000000 [Eh]
    Exch-Disp20 (OS)    =     0.000000000000 [Eh]

    SAPT Results
  --------------------------------------------------------------------------------------------------------
    Electrostatics                  0.16170675 [mEh]       0.10147252 [kcal/mol]       0.42456101 [kJ/mol]
      Elst10,r                      0.16170675 [mEh]       0.10147252 [kcal/mol]       0.42456101 [kJ/mol]

    Exchange                        0.00000000 [mEh]       0.00000000 [kcal/mol]       0.00000000 [kJ/mol]
      Exch10                        0.00000000 [mEh]       0.00000000 [kcal/mol]       0.00000000 [kJ/mol]
      Exch10(S^2)                   0.00000000 [mEh]       0.00000000 [kcal/mol]       0.00000000 [kJ/mol]

    Induction                      -0.00079338 [mEh]      -0.00049786 [kcal/mol]      -0.00208303 [kJ/mol]
      Ind20,r                      -0.00082591 [mEh]      -0.00051827 [kcal/mol]      -0.00216844 [kJ/mol]
      Exch-Ind20,r                  0.00000001 [mEh]       0.00000000 [kcal/mol]       0.00000001 [kJ/mol]
      delta HF,r (2)                0.00003253 [mEh]       0.00002041 [kcal/mol]       0.00008540 [kJ/mol]

    Dispersion                     -0.00218558 [mEh]      -0.00137147 [kcal/mol]      -0.00573825 [kJ/mol]
      Disp20                       -0.00218558 [mEh]      -0.00137147 [kcal/mol]      -0.00573825 [kJ/mol]
      Exch-Disp20                   0.00000000 [mEh]       0.00000000 [kcal/mol]       0.00000000 [kJ/mol]
      Disp20 (SS)                  -0.00109279 [mEh]      -0.00068574 [kcal/mol]      -0.00286913 [kJ/mol]
      Disp20 (OS)                  -0.00109279 [mEh]      -0.00068574 [kcal/mol]      -0.00286913 [kJ/mol]
      Exch-Disp20 (SS)              0.00000000 [mEh]       0.00000000 [kcal/mol]       0.00000000 [kJ/mol]
      Exch-Disp20 (OS)              0.00000000 [mEh]       0.00000000 [kcal/mol]       0.00000000 [kJ/mol]

  Total HF                          0.16091337 [mEh]       0.10097466 [kcal/mol]       0.42247799 [kJ/mol]
  Total SAPT0                       0.15872778 [mEh]       0.09960319 [kcal/mol]       0.41673974 [kJ/mol]

  Special recipe for scaled SAPT0 (see Manual):
    Electrostatics sSAPT0           0.16170675 [mEh]       0.10147252 [kcal/mol]       0.42456101 [kJ/mol]
    Exchange sSAPT0                 0.00000000 [mEh]       0.00000000 [kcal/mol]       0.00000000 [kJ/mol]
    Induction sSAPT0               -0.00079338 [mEh]      -0.00049786 [kcal/mol]      -0.00208303 [kJ/mol]
    Dispersion sSAPT0              -0.00218558 [mEh]      -0.00137147 [kcal/mol]      -0.00573825 [kJ/mol]
  Total sSAPT0                      0.15872778 [mEh]       0.09960319 [kcal/mol]       0.41673974 [kJ/mol]
  --------------------------------------------------------------------------------------------------------

*** tstop() called on ds1 at Tue Sep 14 17:13:31 2021
Module time:
	user time   =      46.41 seconds =       0.77 minutes
	system time =       4.15 seconds =       0.07 minutes
	total time  =         10 seconds =       0.17 minutes
Total time:
	user time   =     104.47 seconds =       1.74 minutes
	system time =       5.48 seconds =       0.09 minutes
	total time  =         22 seconds =       0.37 minutes


Warning! sapt0 does not have an associated derived wavefunction.The returned wavefunction is the dimer SCF wavefunction.


    Psi4 stopped on: Tuesday, 14 September 2021 05:13PM
    Psi4 wall time for execution: 0:00:22.25

*** Psi4 exiting successfully. Buy a developer a beer!
