
    -----------------------------------------------------------------------
          Psi4: An Open-Source Ab Initio Electronic Structure Package
                               Psi4 1.4rc3 

                         Git: Rev {HEAD} 080dba6 


    D. G. A. Smith, L. A. Burns, A. C. Simmonett, R. M. Parrish,
    M. C. Schieber, R. Galvelis, P. Kraus, H. Kruse, R. Di Remigio,
    A. Alenaizan, A. M. James, S. Lehtola, J. P. Misiewicz, M. Scheurer,
    R. A. Shaw, J. B. Schriber, Y. Xie, Z. L. Glick, D. A. Sirianni,
    J. S. O'Brien, J. M. Waldrop, A. Kumar, E. G. Hohenstein,
    B. P. Pritchard, B. R. Brooks, H. F. Schaefer III, A. Yu. Sokolov,
    K. Patkowski, A. E. DePrince III, U. Bozkaya, R. A. King,
    F. A. Evangelista, J. M. Turney, T. D. Crawford, C. D. Sherrill,
    J. Chem. Phys. 152(18) 184108 (2020). https://doi.org/10.1063/5.0006002

                            Additional Code Authors
    E. T. Seidl, C. L. Janssen, E. F. Valeev, M. L. Leininger,
    J. F. Gonthier, R. M. Richard, H. R. McAlexander, M. Saitow, X. Wang,
    P. Verma, and M. H. Lechner

             Previous Authors, Complete List of Code Contributors,
                       and Citations for Specific Modules
    https://github.com/psi4/psi4/blob/master/codemeta.json
    https://github.com/psi4/psi4/graphs/contributors
    http://psicode.org/psi4manual/master/introduction.html#citing-psifour

    -----------------------------------------------------------------------


    Psi4 started on: Tuesday, 14 September 2021 05:33PM

    Process ID: 3452
    Host:       ds1
    PSIDATADIR: /theoryfs2/ds/csargent/miniconda3/envs/cle/share/psi4
    Memory:     500.0 MiB
    Threads:    6
    
  ==> Input File <==

--------------------------------------------------------------------------
# PSI4 file produced by CrystaLattE

# Generated from:               imidazole.xyz
# Psithon input for N-mer:      2mer-0+210
# Number of atoms per monomer:  [9, 9]
# Number of replicas:           2
# COM priority:                 4.104928694477e-05
# Minimum COM separations:      15.340 
# Separation priority:          9.242003759346e-05
# Minimum monomer separations:  11.704 
# Cutoff priority:              4.178510724128e-06
# Nuclear repulsion energy:     372.9699710694822

memory 7 GB

molecule Dimer_0_210 {
  N           -4.29309621      -3.06837431       5.30516231 
  N           -2.15847371      -2.92627296       1.72037448 
  H           -0.02545587      -6.35903575       2.22046452 
  H           -2.68566968      -6.53260241       6.61445954 
  H           -4.74388423      -0.00609006       2.75615968 
  H           -1.41045540      -2.24723147       0.00000000 
  C           -1.43737991      -5.07504848       2.94065891 
  C           -2.76900782      -5.14609916       5.13522880 
  C           -3.85955036      -1.77728198       3.21093411 
--
  N            0.18908973     -31.55360644      -2.78690955 
  N            2.32371223     -31.69570779      -6.37169738 
  H            4.45673008     -28.26294500      -5.87160734 
  H            1.79651626     -28.08937834      -1.47761232 
  H           -0.26169828     -34.61589069      -5.33591219 
  H            3.07173054     -32.37474928      -8.09207186 
  C            3.04480603     -29.54693227      -5.15141295 
  C            1.71317812     -29.47588159      -2.95684306 
  C            0.62263559     -32.84469877      -4.88113775 
units = au
no_com
no_reorient
}

set {
  e_convergence 10
  d_convergence 10
  scf_type df
  mp2_type df
  cc_type df
  freeze_core true
}

energy('sapt0/aug-cc-pvdz')

--------------------------------------------------------------------------

  Memory set to   6.519 GiB by Python driver.

Scratch directory: /scratch/csargent/psi4.31446.79897/

Scratch directory: /scratch/csargent/psi4.31446.79897/

  //>>>>>>>>>>>>>>>>>>>>>>>>>>>>>>>>>>>//
  //              Dimer HF             //
  //<<<<<<<<<<<<<<<<<<<<<<<<<<<<<<<<<<<//


*** tstart() called on ds1
*** at Tue Sep 14 17:33:08 2021

   => Loading Basis Set <=

    Name: AUG-CC-PVDZ
    Role: ORBITAL
    Keyword: BASIS
    atoms 1-2, 10-11 entry N          line   218 file /theoryfs2/ds/csargent/miniconda3/envs/cle/share/psi4/basis/aug-cc-pvdz.gbs 
    atoms 3-6, 12-15 entry H          line    40 file /theoryfs2/ds/csargent/miniconda3/envs/cle/share/psi4/basis/aug-cc-pvdz.gbs 
    atoms 7-9, 16-18 entry C          line   182 file /theoryfs2/ds/csargent/miniconda3/envs/cle/share/psi4/basis/aug-cc-pvdz.gbs 


         ---------------------------------------------------------
                                   SCF
               by Justin Turney, Rob Parrish, Andy Simmonett
                          and Daniel G. A. Smith
                              RHF Reference
                        6 Threads,   6675 MiB Core
         ---------------------------------------------------------

  ==> Geometry <==

    Molecular point group: c1
    Full point group: C1

    Geometry (in Bohr), charge = 0, multiplicity = 1:

       Center              X                  Y                   Z               Mass       
    ------------   -----------------  -----------------  -----------------  -----------------
         N           -4.293096210000    -3.068374310000     5.305162310000    14.003074004430
         N           -2.158473710000    -2.926272960000     1.720374480000    14.003074004430
         H           -0.025455870000    -6.359035750000     2.220464520000     1.007825032230
         H           -2.685669680000    -6.532602410000     6.614459540000     1.007825032230
         H           -4.743884230000    -0.006090060000     2.756159680000     1.007825032230
         H           -1.410455400000    -2.247231470000     0.000000000000     1.007825032230
         C           -1.437379910000    -5.075048480000     2.940658910000    12.000000000000
         C           -2.769007820000    -5.146099160000     5.135228800000    12.000000000000
         C           -3.859550360000    -1.777281980000     3.210934110000    12.000000000000
         N            0.189089730000   -31.553606440000    -2.786909550000    14.003074004430
         N            2.323712230000   -31.695707790000    -6.371697380000    14.003074004430
         H            4.456730080000   -28.262945000000    -5.871607340000     1.007825032230
         H            1.796516260000   -28.089378340000    -1.477612320000     1.007825032230
         H           -0.261698280000   -34.615890690000    -5.335912190000     1.007825032230
         H            3.071730540000   -32.374749280000    -8.092071860000     1.007825032230
         C            3.044806030000   -29.546932270000    -5.151412950000    12.000000000000
         C            1.713178120000   -29.475881590000    -2.956843060000    12.000000000000
         C            0.622635590000   -32.844698770000    -4.881137750000    12.000000000000

  Running in c1 symmetry.

  Rotational constants: A =      0.02718  B =      0.00088  C =      0.00086 [cm^-1]
  Rotational constants: A =    814.81782  B =     26.51269  C =     25.74591 [MHz]
  Nuclear repulsion =  372.969971239908773

  Charge       = 0
  Multiplicity = 1
  Electrons    = 72
  Nalpha       = 36
  Nbeta        = 36

  ==> Algorithm <==

  SCF Algorithm Type is DF.
  DIIS enabled.
  MOM disabled.
  Fractional occupation disabled.
  Guess Type is SAD.
  Energy threshold   = 1.00e-10
  Density threshold  = 1.00e-10
  Integral threshold = 1.00e-12

  ==> Primary Basis <==

  Basis Set: AUG-CC-PVDZ
    Blend: AUG-CC-PVDZ
    Number of shells: 130
    Number of basis functions: 302
    Number of Cartesian functions: 322
    Spherical Harmonics?: true
    Max angular momentum: 2

   => Loading Basis Set <=

    Name: (AUG-CC-PVDZ AUX)
    Role: JKFIT
    Keyword: DF_BASIS_SCF
    atoms 1-2, 10-11 entry N          line   212 file /theoryfs2/ds/csargent/miniconda3/envs/cle/share/psi4/basis/aug-cc-pvdz-jkfit.gbs 
    atoms 3-6, 12-15 entry H          line    70 file /theoryfs2/ds/csargent/miniconda3/envs/cle/share/psi4/basis/aug-cc-pvdz-jkfit.gbs 
    atoms 7-9, 16-18 entry C          line   154 file /theoryfs2/ds/csargent/miniconda3/envs/cle/share/psi4/basis/aug-cc-pvdz-jkfit.gbs 

  ==> Integral Setup <==

  ==> DiskDFJK: Density-Fitted J/K Matrices <==

    J tasked:                  Yes
    K tasked:                  Yes
    wK tasked:                  No
    OpenMP threads:              6
    Integrals threads:           6
    Memory [MiB]:             5006
    Algorithm:                Core
    Integral Cache:           SAVE
    Schwarz Cutoff:          1E-12
    Fitting Condition:       1E-10

   => Auxiliary Basis Set <=

  Basis Set: (AUG-CC-PVDZ AUX)
    Blend: AUG-CC-PVDZ-JKFIT
    Number of shells: 376
    Number of basis functions: 1116
    Number of Cartesian functions: 1290
    Spherical Harmonics?: true
    Max angular momentum: 3

  Minimum eigenvalue in the overlap matrix is 2.1744482635E-05.
  Reciprocal condition number of the overlap matrix is 1.8316477773E-06.
    Using symmetric orthogonalization.

  ==> Pre-Iterations <==

  SCF Guess: Superposition of Atomic Densities via on-the-fly atomic UHF (no occupation information).

   -------------------------
    Irrep   Nso     Nmo    
   -------------------------
     A        302     302 
   -------------------------
    Total     302     302
   -------------------------

  ==> Iterations <==

                           Total Energy        Delta E     RMS |[F,P]|

   @DF-RHF iter SAD:  -449.11714340683972   -4.49117e+02   0.00000e+00 
   @DF-RHF iter   1:  -449.39594871977420   -2.78805e-01   2.30657e-03 DIIS
   @DF-RHF iter   2:  -449.61046460094104   -2.14516e-01   1.31243e-03 DIIS
   @DF-RHF iter   3:  -449.68330878892397   -7.28442e-02   2.46393e-04 DIIS
   @DF-RHF iter   4:  -449.68668426497612   -3.37548e-03   1.13178e-04 DIIS
   @DF-RHF iter   5:  -449.68728943694873   -6.05172e-04   1.78858e-05 DIIS
   @DF-RHF iter   6:  -449.68732413014266   -3.46932e-05   7.95065e-06 DIIS
   @DF-RHF iter   7:  -449.68733030877820   -6.17864e-06   3.10523e-06 DIIS
   @DF-RHF iter   8:  -449.68733177265835   -1.46388e-06   1.09968e-06 DIIS
   @DF-RHF iter   9:  -449.68733199410548   -2.21447e-07   2.66409e-07 DIIS
   @DF-RHF iter  10:  -449.68733200517556   -1.10701e-08   1.04429e-07 DIIS
   @DF-RHF iter  11:  -449.68733200684784   -1.67228e-09   4.61862e-08 DIIS
   @DF-RHF iter  12:  -449.68733200715246   -3.04624e-10   1.37761e-08 DIIS
   @DF-RHF iter  13:  -449.68733200717912   -2.66596e-11   5.09219e-09 DIIS
   @DF-RHF iter  14:  -449.68733200718236   -3.24007e-12   2.24063e-09 DIIS
   @DF-RHF iter  15:  -449.68733200718287   -5.11591e-13   7.58028e-10 DIIS
   @DF-RHF iter  16:  -449.68733200718304   -1.70530e-13   3.47956e-10 DIIS
   @DF-RHF iter  17:  -449.68733200718350   -4.54747e-13   9.80817e-11 DIIS
  Energy and wave function converged.


  ==> Post-Iterations <==

    Orbital Energies [Eh]
    ---------------------

    Doubly Occupied:                                                      

       1A    -15.637477     2A    -15.636503     3A    -15.551574  
       4A    -15.550610     5A    -11.301296     6A    -11.300326  
       7A    -11.263599     8A    -11.262536     9A    -11.246083  
      10A    -11.245009    11A     -1.353266    12A     -1.352275  
      13A     -1.169486    14A     -1.168502    15A     -1.012513  
      16A     -1.011486    17A     -0.824789    18A     -0.823804  
      19A     -0.804142    20A     -0.803115    21A     -0.761078  
      22A     -0.760074    23A     -0.610498    24A     -0.609490  
      25A     -0.604360    26A     -0.603368    27A     -0.602368  
      28A     -0.601323    29A     -0.571336    30A     -0.570304  
      31A     -0.435832    32A     -0.434866    33A     -0.400845  
      34A     -0.399857    35A     -0.321106    36A     -0.320066  

    Virtual:                                                              

      37A      0.024874    38A      0.025707    39A      0.040557  
      40A      0.042234    41A      0.049625    42A      0.050846  
      43A      0.061315    44A      0.062691    45A      0.088703  
      46A      0.089674    47A      0.101031    48A      0.101967  
      49A      0.120442    50A      0.121393    51A      0.125101  
      52A      0.126232    53A      0.132792    54A      0.133210  
      55A      0.134077    56A      0.134554    57A      0.140525  
      58A      0.141645    59A      0.155062    60A      0.157410  
      61A      0.158363    62A      0.159248    63A      0.171946  
      64A      0.173084    65A      0.177781    66A      0.178745  
      67A      0.186734    68A      0.188165    69A      0.211231  
      70A      0.212156    71A      0.219806    72A      0.220924  
      73A      0.232004    74A      0.232985    75A      0.240965  
      76A      0.242005    77A      0.261148    78A      0.262157  
      79A      0.267640    80A      0.268481    81A      0.277615  
      82A      0.278568    83A      0.301332    84A      0.302336  
      85A      0.314148    86A      0.315049    87A      0.337788  
      88A      0.338863    89A      0.360994    90A      0.362097  
      91A      0.370311    92A      0.371320    93A      0.379359  
      94A      0.380355    95A      0.387779    96A      0.388895  
      97A      0.396653    98A      0.397666    99A      0.416179  
     100A      0.418312   101A      0.428478   102A      0.430075  
     103A      0.451639   104A      0.452661   105A      0.465969  
     106A      0.466931   107A      0.480780   108A      0.481802  
     109A      0.485842   110A      0.486926   111A      0.487741  
     112A      0.488796   113A      0.551304   114A      0.552304  
     115A      0.555769   116A      0.557221   117A      0.567862  
     118A      0.568884   119A      0.576107   120A      0.577042  
     121A      0.593815   122A      0.594847   123A      0.598494  
     124A      0.599536   125A      0.615683   126A      0.616729  
     127A      0.636084   128A      0.637169   129A      0.652109  
     130A      0.653160   131A      0.668863   132A      0.669902  
     133A      0.670930   134A      0.671965   135A      0.677794  
     136A      0.678753   137A      0.683422   138A      0.684531  
     139A      0.714279   140A      0.715294   141A      0.725331  
     142A      0.726337   143A      0.740833   144A      0.741861  
     145A      0.762300   146A      0.763324   147A      0.766994  
     148A      0.768027   149A      0.790509   150A      0.791537  
     151A      0.793255   152A      0.794178   153A      0.809334  
     154A      0.810335   155A      0.859924   156A      0.861131  
     157A      0.871007   158A      0.872046   159A      0.885386  
     160A      0.886446   161A      0.889357   162A      0.890483  
     163A      0.953946   164A      0.954960   165A      0.976571  
     166A      0.977551   167A      0.997993   168A      0.998949  
     169A      1.010356   170A      1.011334   171A      1.017001  
     172A      1.018033   173A      1.030272   174A      1.031260  
     175A      1.076988   176A      1.077971   177A      1.084166  
     178A      1.085139   179A      1.126567   180A      1.127638  
     181A      1.140104   182A      1.141146   183A      1.149162  
     184A      1.150161   185A      1.166763   186A      1.167810  
     187A      1.217066   188A      1.218057   189A      1.260253  
     190A      1.261339   191A      1.302074   192A      1.303278  
     193A      1.384634   194A      1.385599   195A      1.397770  
     196A      1.398764   197A      1.450735   198A      1.451777  
     199A      1.502902   200A      1.503902   201A      1.518003  
     202A      1.519008   203A      1.573698   204A      1.573887  
     205A      1.574749   206A      1.574928   207A      1.595958  
     208A      1.596990   209A      1.651763   210A      1.652771  
     211A      1.671078   212A      1.672141   213A      1.704544  
     214A      1.706325   215A      1.724119   216A      1.725058  
     217A      1.782203   218A      1.783259   219A      1.798601  
     220A      1.799762   221A      1.806644   222A      1.807728  
     223A      1.864559   224A      1.865571   225A      1.881093  
     226A      1.882088   227A      1.924011   228A      1.924986  
     229A      1.964598   230A      1.965587   231A      2.021576  
     232A      2.022591   233A      2.025030   234A      2.026023  
     235A      2.072571   236A      2.073588   237A      2.106640  
     238A      2.107667   239A      2.126332   240A      2.127390  
     241A      2.135541   242A      2.136599   243A      2.168247  
     244A      2.169280   245A      2.178401   246A      2.179408  
     247A      2.266680   248A      2.267680   249A      2.275584  
     250A      2.276568   251A      2.300547   252A      2.301503  
     253A      2.331684   254A      2.332666   255A      2.417322  
     256A      2.418379   257A      2.496513   258A      2.497480  
     259A      2.513637   260A      2.514637   261A      2.544945  
     262A      2.545895   263A      2.585320   264A      2.586351  
     265A      2.633361   266A      2.634378   267A      2.733667  
     268A      2.734734   269A      2.746640   270A      2.747621  
     271A      2.766671   272A      2.767715   273A      2.793751  
     274A      2.794749   275A      2.803065   276A      2.804054  
     277A      2.837223   278A      2.838241   279A      2.866833  
     280A      2.867796   281A      2.952338   282A      2.953335  
     283A      2.980486   284A      2.981465   285A      3.050775  
     286A      3.051822   287A      3.069512   288A      3.070531  
     289A      3.198782   290A      3.199750   291A      3.208395  
     292A      3.209420   293A      3.334429   294A      3.335400  
     295A      3.354149   296A      3.355235   297A      3.518162  
     298A      3.519168   299A      3.767903   300A      3.768923  
     301A      4.108616   302A      4.109631  

    Final Occupation by Irrep:
              A 
    DOCC [    36 ]

  @DF-RHF Final Energy:  -449.68733200718350

   => Energetics <=

    Nuclear Repulsion Energy =            372.9699712399087730
    One-Electron Energy =               -1347.4642783949514069
    Two-Electron Energy =                 524.8069751478591343
    Total Energy =                       -449.6873320071834996

Computation Completed


Properties will be evaluated at   0.000000,   0.000000,   0.000000 [a0]

Properties computed using the SCF density matrix

  Nuclear Dipole Moment: [e a0]
     X:   -43.4855      Y: -1246.3913      Z:   -34.3330

  Electronic Dipole Moment: [e a0]
     X:    45.0901      Y:  1246.3868      Z:    31.6714

  Dipole Moment: [e a0]
     X:     1.6046      Y:    -0.0045      Z:    -2.6616     Total:     3.1079

  Dipole Moment: [D]
     X:     4.0785      Y:    -0.0115      Z:    -6.7651     Total:     7.8994


*** tstop() called on ds1 at Tue Sep 14 17:33:13 2021
Module time:
	user time   =      23.61 seconds =       0.39 minutes
	system time =       0.57 seconds =       0.01 minutes
	total time  =          5 seconds =       0.08 minutes
Total time:
	user time   =      23.61 seconds =       0.39 minutes
	system time =       0.57 seconds =       0.01 minutes
	total time  =          5 seconds =       0.08 minutes

  //>>>>>>>>>>>>>>>>>>>>>>>>>>>>>>>>>>>//
  //            Monomer A HF           //
  //<<<<<<<<<<<<<<<<<<<<<<<<<<<<<<<<<<<//


*** tstart() called on ds1
*** at Tue Sep 14 17:33:13 2021

   => Loading Basis Set <=

    Name: AUG-CC-PVDZ
    Role: ORBITAL
    Keyword: BASIS
    atoms 1-2, 10-11 entry N          line   218 file /theoryfs2/ds/csargent/miniconda3/envs/cle/share/psi4/basis/aug-cc-pvdz.gbs 
    atoms 3-6, 12-15 entry H          line    40 file /theoryfs2/ds/csargent/miniconda3/envs/cle/share/psi4/basis/aug-cc-pvdz.gbs 
    atoms 7-9, 16-18 entry C          line   182 file /theoryfs2/ds/csargent/miniconda3/envs/cle/share/psi4/basis/aug-cc-pvdz.gbs 


         ---------------------------------------------------------
                                   SCF
               by Justin Turney, Rob Parrish, Andy Simmonett
                          and Daniel G. A. Smith
                              RHF Reference
                        6 Threads,   6675 MiB Core
         ---------------------------------------------------------

  ==> Geometry <==

    Molecular point group: c1
    Full point group: C1

    Geometry (in Bohr), charge = 0, multiplicity = 1:

       Center              X                  Y                   Z               Mass       
    ------------   -----------------  -----------------  -----------------  -----------------
         N           -4.293096210000    -3.068374310000     5.305162310000    14.003074004430
         N           -2.158473710000    -2.926272960000     1.720374480000    14.003074004430
         H           -0.025455870000    -6.359035750000     2.220464520000     1.007825032230
         H           -2.685669680000    -6.532602410000     6.614459540000     1.007825032230
         H           -4.743884230000    -0.006090060000     2.756159680000     1.007825032230
         H           -1.410455400000    -2.247231470000     0.000000000000     1.007825032230
         C           -1.437379910000    -5.075048480000     2.940658910000    12.000000000000
         C           -2.769007820000    -5.146099160000     5.135228800000    12.000000000000
         C           -3.859550360000    -1.777281980000     3.210934110000    12.000000000000
      Gh(N)           0.189089730000   -31.553606440000    -2.786909550000    14.003074004430
      Gh(N)           2.323712230000   -31.695707790000    -6.371697380000    14.003074004430
      Gh(H)           4.456730080000   -28.262945000000    -5.871607340000     1.007825032230
      Gh(H)           1.796516260000   -28.089378340000    -1.477612320000     1.007825032230
      Gh(H)          -0.261698280000   -34.615890690000    -5.335912190000     1.007825032230
      Gh(H)           3.071730540000   -32.374749280000    -8.092071860000     1.007825032230
      Gh(C)           3.044806030000   -29.546932270000    -5.151412950000    12.000000000000
      Gh(C)           1.713178120000   -29.475881590000    -2.956843060000    12.000000000000
      Gh(C)           0.622635590000   -32.844698770000    -4.881137750000    12.000000000000

  Running in c1 symmetry.

  Rotational constants: A =      0.02718  B =      0.00088  C =      0.00086 [cm^-1]
  Rotational constants: A =    814.81782  B =     26.51269  C =     25.74591 [MHz]
  Nuclear repulsion =  164.086695994184396

  Charge       = 0
  Multiplicity = 1
  Electrons    = 36
  Nalpha       = 18
  Nbeta        = 18

  ==> Algorithm <==

  SCF Algorithm Type is DF.
  DIIS enabled.
  MOM disabled.
  Fractional occupation disabled.
  Guess Type is SAD.
  Energy threshold   = 1.00e-10
  Density threshold  = 1.00e-10
  Integral threshold = 1.00e-12

  ==> Primary Basis <==

  Basis Set: AUG-CC-PVDZ
    Blend: AUG-CC-PVDZ
    Number of shells: 130
    Number of basis functions: 302
    Number of Cartesian functions: 322
    Spherical Harmonics?: true
    Max angular momentum: 2

   => Loading Basis Set <=

    Name: (AUG-CC-PVDZ AUX)
    Role: JKFIT
    Keyword: DF_BASIS_SCF
    atoms 1-2, 10-11 entry N          line   212 file /theoryfs2/ds/csargent/miniconda3/envs/cle/share/psi4/basis/aug-cc-pvdz-jkfit.gbs 
    atoms 3-6, 12-15 entry H          line    70 file /theoryfs2/ds/csargent/miniconda3/envs/cle/share/psi4/basis/aug-cc-pvdz-jkfit.gbs 
    atoms 7-9, 16-18 entry C          line   154 file /theoryfs2/ds/csargent/miniconda3/envs/cle/share/psi4/basis/aug-cc-pvdz-jkfit.gbs 

  ==> Integral Setup <==

  ==> DiskDFJK: Density-Fitted J/K Matrices <==

    J tasked:                  Yes
    K tasked:                  Yes
    wK tasked:                  No
    OpenMP threads:              6
    Integrals threads:           6
    Memory [MiB]:             5006
    Algorithm:                Core
    Integral Cache:           LOAD
    Schwarz Cutoff:          1E-12
    Fitting Condition:       1E-10

   => Auxiliary Basis Set <=

  Basis Set: (AUG-CC-PVDZ AUX)
    Blend: AUG-CC-PVDZ-JKFIT
    Number of shells: 376
    Number of basis functions: 1116
    Number of Cartesian functions: 1290
    Spherical Harmonics?: true
    Max angular momentum: 3

  Minimum eigenvalue in the overlap matrix is 2.1744482635E-05.
  Reciprocal condition number of the overlap matrix is 1.8316477773E-06.
    Using symmetric orthogonalization.

  ==> Pre-Iterations <==

  SCF Guess: Superposition of Atomic Densities via on-the-fly atomic UHF (no occupation information).

   -------------------------
    Irrep   Nso     Nmo    
   -------------------------
     A        302     302 
   -------------------------
    Total     302     302
   -------------------------

  ==> Iterations <==

                           Total Energy        Delta E     RMS |[F,P]|

   @DF-RHF iter SAD:  -224.55857169646191   -2.24559e+02   0.00000e+00 
   @DF-RHF iter   1:  -224.69806466459005   -1.39493e-01   1.63067e-03 DIIS
   @DF-RHF iter   2:  -224.80532028561854   -1.07256e-01   9.27384e-04 DIIS
   @DF-RHF iter   3:  -224.84168819113953   -3.63679e-02   1.74019e-04 DIIS
   @DF-RHF iter   4:  -224.84337344324032   -1.68525e-03   7.98972e-05 DIIS
   @DF-RHF iter   5:  -224.84367502394724   -3.01581e-04   1.26452e-05 DIIS
   @DF-RHF iter   6:  -224.84369236098175   -1.73370e-05   5.61871e-06 DIIS
   @DF-RHF iter   7:  -224.84369544905113   -3.08807e-06   2.19503e-06 DIIS
   @DF-RHF iter   8:  -224.84369618096957   -7.31918e-07   7.77587e-07 DIIS
   @DF-RHF iter   9:  -224.84369629176331   -1.10794e-07   1.87961e-07 DIIS
   @DF-RHF iter  10:  -224.84369629729895   -5.53564e-09   7.33126e-08 DIIS
   @DF-RHF iter  11:  -224.84369629812574   -8.26788e-10   3.26918e-08 DIIS
   @DF-RHF iter  12:  -224.84369629827785   -1.52113e-10   9.70884e-09 DIIS
   @DF-RHF iter  13:  -224.84369629829106   -1.32161e-11   3.58840e-09 DIIS
   @DF-RHF iter  14:  -224.84369629829271   -1.64846e-12   1.58275e-09 DIIS
   @DF-RHF iter  15:  -224.84369629829260    1.13687e-13   5.27556e-10 DIIS
   @DF-RHF iter  16:  -224.84369629829271   -1.13687e-13   2.34517e-10 DIIS
   @DF-RHF iter  17:  -224.84369629829297   -2.55795e-13   4.71139e-11 DIIS
  Energy and wave function converged.


  ==> Post-Iterations <==

    Orbital Energies [Eh]
    ---------------------

    Doubly Occupied:                                                      

       1A    -15.637071     2A    -15.551216     3A    -11.300916  
       4A    -11.263160     5A    -11.245653     6A     -1.352867  
       7A     -1.169098     8A     -1.012098     9A     -0.824390  
      10A     -0.803731    11A     -0.760666    12A     -0.610096  
      13A     -0.603958    14A     -0.601922    15A     -0.570942  
      16A     -0.435483    17A     -0.400464    18A     -0.320685  

    Virtual:                                                              

      19A      0.022197    20A      0.025383    21A      0.039333  
      22A      0.041630    23A      0.043518    24A      0.050004  
      25A      0.061857    26A      0.067322    27A      0.076250  
      28A      0.085925    29A      0.089098    30A      0.097278  
      31A      0.101389    32A      0.120815    33A      0.124209  
      34A      0.124676    35A      0.125575    36A      0.126322  
      37A      0.126811    38A      0.133569    39A      0.133843  
      40A      0.134015    41A      0.137760    42A      0.140943  
      43A      0.155751    44A      0.157048    45A      0.158903  
      46A      0.171989    47A      0.178188    48A      0.187128  
      49A      0.192022    50A      0.207427    51A      0.209082  
      52A      0.211558    53A      0.212375    54A      0.220139  
      55A      0.220386    56A      0.222348    57A      0.232338  
      58A      0.232860    59A      0.241415    60A      0.261647  
      61A      0.267794    62A      0.271826    63A      0.277912  
      64A      0.299305    65A      0.301748    66A      0.306162  
      67A      0.314443    68A      0.318989    69A      0.338198  
      70A      0.359949    71A      0.361521    72A      0.370745  
      73A      0.375090    74A      0.379816    75A      0.388327  
      76A      0.393166    77A      0.397134    78A      0.417044  
      79A      0.426987    80A      0.429163    81A      0.434772  
      82A      0.440142    83A      0.448735    84A      0.451815  
      85A      0.452065    86A      0.466350    87A      0.467822  
      88A      0.480775    89A      0.481276    90A      0.486285  
      91A      0.488153    92A      0.517046    93A      0.520274  
      94A      0.535773    95A      0.537921    96A      0.542847  
      97A      0.551715    98A      0.555457    99A      0.556627  
     100A      0.568285   101A      0.576476   102A      0.579061  
     103A      0.587284   104A      0.594266   105A      0.598957  
     106A      0.606136   107A      0.611884   108A      0.616081  
     109A      0.618096   110A      0.636541   111A      0.639436  
     112A      0.652517   113A      0.669285   114A      0.671339  
     115A      0.677320   116A      0.678187   117A      0.683506  
     118A      0.683877   119A      0.710965   120A      0.714698  
     121A      0.725768   122A      0.735817   123A      0.741240  
     124A      0.755861   125A      0.762704   126A      0.767407  
     127A      0.790932   128A      0.793607   129A      0.797958  
     130A      0.809748   131A      0.810183   132A      0.812280  
     133A      0.822914   134A      0.836335   135A      0.859284  
     136A      0.860457   137A      0.871425   138A      0.885771  
     139A      0.886362   140A      0.889823   141A      0.909492  
     142A      0.919409   143A      0.926662   144A      0.954352  
     145A      0.968494   146A      0.976977   147A      0.991601  
     148A      0.998360   149A      1.010706   150A      1.015201  
     151A      1.017405   152A      1.030676   153A      1.058746  
     154A      1.077356   155A      1.078369   156A      1.084554  
     157A      1.103439   158A      1.115720   159A      1.126989  
     160A      1.132211   161A      1.140504   162A      1.149565  
     163A      1.167179   164A      1.170651   165A      1.173868  
     166A      1.197350   167A      1.210360   168A      1.217446  
     169A      1.260735   170A      1.277864   171A      1.290456  
     172A      1.296802   173A      1.302559   174A      1.312352  
     175A      1.317896   176A      1.347400   177A      1.383848  
     178A      1.385031   179A      1.398147   180A      1.451153  
     181A      1.494728   182A      1.503289   183A      1.515629  
     184A      1.518410   185A      1.541107   186A      1.574127  
     187A      1.574287   188A      1.596381   189A      1.652159  
     190A      1.660710   191A      1.671507   192A      1.705342  
     193A      1.724480   194A      1.782644   195A      1.799086  
     196A      1.807068   197A      1.864953   198A      1.881495  
     199A      1.924392   200A      1.964990   201A      2.022010  
     202A      2.025430   203A      2.039454   204A      2.072986  
     205A      2.100871   206A      2.107057   207A      2.119287  
     208A      2.126761   209A      2.131140   210A      2.135967  
     211A      2.149262   212A      2.168670   213A      2.178815  
     214A      2.184796   215A      2.229487   216A      2.252562  
     217A      2.267082   218A      2.275965   219A      2.300924  
     220A      2.308450   221A      2.327057   222A      2.332083  
     223A      2.376751   224A      2.405405   225A      2.413144  
     226A      2.417758   227A      2.455526   228A      2.470693  
     229A      2.493734   230A      2.496921   231A      2.514027  
     232A      2.525778   233A      2.545343   234A      2.545377  
     235A      2.576704   236A      2.585745   237A      2.599730  
     238A      2.633766   239A      2.696048   240A      2.734097  
     241A      2.747025   242A      2.767103   243A      2.790364  
     244A      2.794150   245A      2.803446   246A      2.828747  
     247A      2.837656   248A      2.867213   249A      2.895818  
     250A      2.933114   251A      2.949292   252A      2.952742  
     253A      2.980863   254A      3.043520   255A      3.051205  
     256A      3.069910   257A      3.076171   258A      3.131933  
     259A      3.159641   260A      3.182954   261A      3.199164  
     262A      3.208805   263A      3.213391   264A      3.334816  
     265A      3.340815   266A      3.354550   267A      3.354792  
     268A      3.362830   269A      3.458672   270A      3.494551  
     271A      3.518559   272A      3.569570   273A      3.609008  
     274A      3.707246   275A      3.726724   276A      3.768314  
     277A      3.778382   278A      3.798185   279A      3.857917  
     280A      3.870783   281A      4.003930   282A      4.109025  
     283A      4.212806   284A      4.636752   285A      4.638849  
     286A      4.695993   287A      4.771849   288A      4.880111  
     289A      5.021436   290A      5.254784   291A      5.373235  
     292A      5.494911   293A      5.610353   294A      5.716281  
     295A      5.883982   296A      6.089696   297A      6.198238  
     298A     18.255427   299A     18.590262   300A     19.300409  
     301A     25.312079   302A     25.453270  

    Final Occupation by Irrep:
              A 
    DOCC [    18 ]

  @DF-RHF Final Energy:  -224.84369629829297

   => Energetics <=

    Nuclear Repulsion Energy =            164.0866959941843959
    One-Electron Energy =                -628.9319564893098686
    Two-Electron Energy =                 240.0015641968324758
    Total Energy =                       -224.8436962982929685

Computation Completed


Properties will be evaluated at   0.000000,   0.000000,   0.000000 [a0]

Properties computed using the SCF density matrix

  Nuclear Dipole Moment: [e a0]
     X:  -102.4221      Y:  -129.0981      Z:   128.4908

  Electronic Dipole Moment: [e a0]
     X:   103.2259      Y:   129.2613      Z:  -129.8232

  Dipole Moment: [e a0]
     X:     0.8038      Y:     0.1633      Z:    -1.3324     Total:     1.5646

  Dipole Moment: [D]
     X:     2.0431      Y:     0.4150      Z:    -3.3867     Total:     3.9769


*** tstop() called on ds1 at Tue Sep 14 17:33:17 2021
Module time:
	user time   =      16.90 seconds =       0.28 minutes
	system time =       0.33 seconds =       0.01 minutes
	total time  =          4 seconds =       0.07 minutes
Total time:
	user time   =      40.71 seconds =       0.68 minutes
	system time =       0.91 seconds =       0.02 minutes
	total time  =          9 seconds =       0.15 minutes

  //>>>>>>>>>>>>>>>>>>>>>>>>>>>>>>>>>>>//
  //            Monomer B HF           //
  //<<<<<<<<<<<<<<<<<<<<<<<<<<<<<<<<<<<//


*** tstart() called on ds1
*** at Tue Sep 14 17:33:17 2021

   => Loading Basis Set <=

    Name: AUG-CC-PVDZ
    Role: ORBITAL
    Keyword: BASIS
    atoms 1-2, 10-11 entry N          line   218 file /theoryfs2/ds/csargent/miniconda3/envs/cle/share/psi4/basis/aug-cc-pvdz.gbs 
    atoms 3-6, 12-15 entry H          line    40 file /theoryfs2/ds/csargent/miniconda3/envs/cle/share/psi4/basis/aug-cc-pvdz.gbs 
    atoms 7-9, 16-18 entry C          line   182 file /theoryfs2/ds/csargent/miniconda3/envs/cle/share/psi4/basis/aug-cc-pvdz.gbs 


         ---------------------------------------------------------
                                   SCF
               by Justin Turney, Rob Parrish, Andy Simmonett
                          and Daniel G. A. Smith
                              RHF Reference
                        6 Threads,   6675 MiB Core
         ---------------------------------------------------------

  ==> Geometry <==

    Molecular point group: c1
    Full point group: C1

    Geometry (in Bohr), charge = 0, multiplicity = 1:

       Center              X                  Y                   Z               Mass       
    ------------   -----------------  -----------------  -----------------  -----------------
      Gh(N)          -4.293096210000    -3.068374310000     5.305162310000    14.003074004430
      Gh(N)          -2.158473710000    -2.926272960000     1.720374480000    14.003074004430
      Gh(H)          -0.025455870000    -6.359035750000     2.220464520000     1.007825032230
      Gh(H)          -2.685669680000    -6.532602410000     6.614459540000     1.007825032230
      Gh(H)          -4.743884230000    -0.006090060000     2.756159680000     1.007825032230
      Gh(H)          -1.410455400000    -2.247231470000     0.000000000000     1.007825032230
      Gh(C)          -1.437379910000    -5.075048480000     2.940658910000    12.000000000000
      Gh(C)          -2.769007820000    -5.146099160000     5.135228800000    12.000000000000
      Gh(C)          -3.859550360000    -1.777281980000     3.210934110000    12.000000000000
         N            0.189089730000   -31.553606440000    -2.786909550000    14.003074004430
         N            2.323712230000   -31.695707790000    -6.371697380000    14.003074004430
         H            4.456730080000   -28.262945000000    -5.871607340000     1.007825032230
         H            1.796516260000   -28.089378340000    -1.477612320000     1.007825032230
         H           -0.261698280000   -34.615890690000    -5.335912190000     1.007825032230
         H            3.071730540000   -32.374749280000    -8.092071860000     1.007825032230
         C            3.044806030000   -29.546932270000    -5.151412950000    12.000000000000
         C            1.713178120000   -29.475881590000    -2.956843060000    12.000000000000
         C            0.622635590000   -32.844698770000    -4.881137750000    12.000000000000

  Running in c1 symmetry.

  Rotational constants: A =      0.02718  B =      0.00088  C =      0.00086 [cm^-1]
  Rotational constants: A =    814.81782  B =     26.51269  C =     25.74591 [MHz]
  Nuclear repulsion =  164.086696030978260

  Charge       = 0
  Multiplicity = 1
  Electrons    = 36
  Nalpha       = 18
  Nbeta        = 18

  ==> Algorithm <==

  SCF Algorithm Type is DF.
  DIIS enabled.
  MOM disabled.
  Fractional occupation disabled.
  Guess Type is SAD.
  Energy threshold   = 1.00e-10
  Density threshold  = 1.00e-10
  Integral threshold = 1.00e-12

  ==> Primary Basis <==

  Basis Set: AUG-CC-PVDZ
    Blend: AUG-CC-PVDZ
    Number of shells: 130
    Number of basis functions: 302
    Number of Cartesian functions: 322
    Spherical Harmonics?: true
    Max angular momentum: 2

   => Loading Basis Set <=

    Name: (AUG-CC-PVDZ AUX)
    Role: JKFIT
    Keyword: DF_BASIS_SCF
    atoms 1-2, 10-11 entry N          line   212 file /theoryfs2/ds/csargent/miniconda3/envs/cle/share/psi4/basis/aug-cc-pvdz-jkfit.gbs 
    atoms 3-6, 12-15 entry H          line    70 file /theoryfs2/ds/csargent/miniconda3/envs/cle/share/psi4/basis/aug-cc-pvdz-jkfit.gbs 
    atoms 7-9, 16-18 entry C          line   154 file /theoryfs2/ds/csargent/miniconda3/envs/cle/share/psi4/basis/aug-cc-pvdz-jkfit.gbs 

  ==> Integral Setup <==

  ==> DiskDFJK: Density-Fitted J/K Matrices <==

    J tasked:                  Yes
    K tasked:                  Yes
    wK tasked:                  No
    OpenMP threads:              6
    Integrals threads:           6
    Memory [MiB]:             5006
    Algorithm:                Core
    Integral Cache:           LOAD
    Schwarz Cutoff:          1E-12
    Fitting Condition:       1E-10

   => Auxiliary Basis Set <=

  Basis Set: (AUG-CC-PVDZ AUX)
    Blend: AUG-CC-PVDZ-JKFIT
    Number of shells: 376
    Number of basis functions: 1116
    Number of Cartesian functions: 1290
    Spherical Harmonics?: true
    Max angular momentum: 3

  Minimum eigenvalue in the overlap matrix is 2.1744482635E-05.
  Reciprocal condition number of the overlap matrix is 1.8316477773E-06.
    Using symmetric orthogonalization.

  ==> Pre-Iterations <==

  SCF Guess: Superposition of Atomic Densities via on-the-fly atomic UHF (no occupation information).

   -------------------------
    Irrep   Nso     Nmo    
   -------------------------
     A        302     302 
   -------------------------
    Total     302     302
   -------------------------

  ==> Iterations <==

                           Total Energy        Delta E     RMS |[F,P]|

   @DF-RHF iter SAD:  -224.55857170045567   -2.24559e+02   0.00000e+00 
   @DF-RHF iter   1:  -224.69806465800710   -1.39493e-01   1.63067e-03 DIIS
   @DF-RHF iter   2:  -224.80532028007519   -1.07256e-01   9.27384e-04 DIIS
   @DF-RHF iter   3:  -224.84168818639790   -3.63679e-02   1.74019e-04 DIIS
   @DF-RHF iter   4:  -224.84337343858746   -1.68525e-03   7.98972e-05 DIIS
   @DF-RHF iter   5:  -224.84367501930902   -3.01581e-04   1.26452e-05 DIIS
   @DF-RHF iter   6:  -224.84369235634358   -1.73370e-05   5.61871e-06 DIIS
   @DF-RHF iter   7:  -224.84369544441304   -3.08807e-06   2.19503e-06 DIIS
   @DF-RHF iter   8:  -224.84369617633180   -7.31919e-07   7.77587e-07 DIIS
   @DF-RHF iter   9:  -224.84369628712591   -1.10794e-07   1.87961e-07 DIIS
   @DF-RHF iter  10:  -224.84369629266163   -5.53572e-09   7.33126e-08 DIIS
   @DF-RHF iter  11:  -224.84369629348816   -8.26532e-10   3.26918e-08 DIIS
   @DF-RHF iter  12:  -224.84369629364019   -1.52028e-10   9.70884e-09 DIIS
   @DF-RHF iter  13:  -224.84369629365304   -1.28466e-11   3.58840e-09 DIIS
   @DF-RHF iter  14:  -224.84369629365477   -1.73372e-12   1.58275e-09 DIIS
   @DF-RHF iter  15:  -224.84369629365531   -5.40012e-13   5.27556e-10 DIIS
   @DF-RHF iter  16:  -224.84369629365503    2.84217e-13   2.34517e-10 DIIS
   @DF-RHF iter  17:  -224.84369629365511   -8.52651e-14   4.71136e-11 DIIS
  Energy and wave function converged.


  ==> Post-Iterations <==

    Orbital Energies [Eh]
    ---------------------

    Doubly Occupied:                                                      

       1A    -15.637071     2A    -15.551216     3A    -11.300916  
       4A    -11.263160     5A    -11.245653     6A     -1.352867  
       7A     -1.169098     8A     -1.012098     9A     -0.824390  
      10A     -0.803731    11A     -0.760666    12A     -0.610096  
      13A     -0.603958    14A     -0.601922    15A     -0.570942  
      16A     -0.435483    17A     -0.400464    18A     -0.320685  

    Virtual:                                                              

      19A      0.023248    20A      0.025386    21A      0.040511  
      22A      0.041684    23A      0.044280    24A      0.050049  
      25A      0.061810    26A      0.068360    27A      0.077263  
      28A      0.086986    29A      0.089096    30A      0.098172  
      31A      0.101399    32A      0.120823    33A      0.125285  
      34A      0.125578    35A      0.125893    36A      0.127612  
      37A      0.127669    38A      0.133548    39A      0.133866  
      40A      0.134775    41A      0.138834    42A      0.140943  
      43A      0.156198    44A      0.157719    45A      0.158840  
      46A      0.172128    47A      0.178188    48A      0.187188  
      49A      0.192970    50A      0.208398    51A      0.210211  
      52A      0.211560    53A      0.213300    54A      0.220265  
      55A      0.221112    56A      0.223300    57A      0.232358  
      58A      0.233811    59A      0.241408    60A      0.261608  
      61A      0.267767    62A      0.272878    63A      0.277921  
      64A      0.300143    65A      0.301746    66A      0.307164  
      67A      0.314428    68A      0.320048    69A      0.338248  
      70A      0.360845    71A      0.361534    72A      0.370750  
      73A      0.376253    74A      0.379818    75A      0.388306  
      76A      0.394156    77A      0.397109    78A      0.417175  
      79A      0.428179    80A      0.429027    81A      0.435903  
      82A      0.441187    83A      0.449707    84A      0.452059  
      85A      0.452815    86A      0.466350    87A      0.468841  
      88A      0.481229    89A      0.481827    90A      0.486290  
      91A      0.488156    92A      0.518150    93A      0.521269  
      94A      0.536673    95A      0.538899    96A      0.543888  
      97A      0.551713    98A      0.556086    99A      0.556871  
     100A      0.568300   101A      0.576474   102A      0.580061  
     103A      0.588288   104A      0.594263   105A      0.598943  
     106A      0.607273   107A      0.612758   108A      0.616080  
     109A      0.619053   110A      0.636540   111A      0.640539  
     112A      0.652518   113A      0.669285   114A      0.671340  
     115A      0.678195   116A      0.678343   117A      0.683877  
     118A      0.684557   119A      0.711984   120A      0.714698  
     121A      0.725769   122A      0.736912   123A      0.741239  
     124A      0.756824   125A      0.762701   126A      0.767405  
     127A      0.790930   128A      0.793606   129A      0.798979  
     130A      0.809748   131A      0.811219   132A      0.813142  
     133A      0.824061   134A      0.837431   135A      0.859916  
     136A      0.860967   137A      0.871425   138A      0.885770  
     139A      0.887312   140A      0.889823   141A      0.910516  
     142A      0.920411   143A      0.927674   144A      0.954351  
     145A      0.969476   146A      0.976964   147A      0.992596  
     148A      0.998364   149A      1.010706   150A      1.016234  
     151A      1.017404   152A      1.030678   153A      1.059800  
     154A      1.077352   155A      1.079350   156A      1.084552  
     157A      1.104437   158A      1.116768   159A      1.127009  
     160A      1.133175   161A      1.140511   162A      1.149567  
     163A      1.167168   164A      1.171717   165A      1.174814  
     166A      1.198309   167A      1.211320   168A      1.217445  
     169A      1.260727   170A      1.278813   171A      1.291396  
     172A      1.297767   173A      1.302569   174A      1.313318  
     175A      1.318848   176A      1.348350   177A      1.384826  
     178A      1.385031   179A      1.398155   180A      1.451155  
     181A      1.495660   182A      1.503291   183A      1.516586  
     184A      1.518410   185A      1.542102   186A      1.574127  
     187A      1.574291   188A      1.596382   189A      1.652159  
     190A      1.661703   191A      1.671509   192A      1.705332  
     193A      1.724479   194A      1.782643   195A      1.799078  
     196A      1.807064   197A      1.864963   198A      1.881481  
     199A      1.924392   200A      1.964993   201A      2.022007  
     202A      2.025435   203A      2.040549   204A      2.072982  
     205A      2.101856   206A      2.107057   207A      2.120225  
     208A      2.126763   209A      2.132220   210A      2.135971  
     211A      2.150335   212A      2.168670   213A      2.178816  
     214A      2.186021   215A      2.230543   216A      2.253635  
     217A      2.267082   218A      2.275966   219A      2.300924  
     220A      2.309579   221A      2.328027   222A      2.332074  
     223A      2.377682   224A      2.406318   225A      2.414257  
     226A      2.417759   227A      2.456628   228A      2.471685  
     229A      2.494787   230A      2.496922   231A      2.514029  
     232A      2.526711   233A      2.545345   234A      2.546388  
     235A      2.577794   236A      2.585744   237A      2.600806  
     238A      2.633770   239A      2.697159   240A      2.734103  
     241A      2.747025   242A      2.767090   243A      2.791256  
     244A      2.794149   245A      2.803452   246A      2.829862  
     247A      2.837647   248A      2.867213   249A      2.896721  
     250A      2.934252   251A      2.950351   252A      2.952748  
     253A      2.980863   254A      3.044449   255A      3.051201  
     256A      3.069932   257A      3.077164   258A      3.132827  
     259A      3.160594   260A      3.183975   261A      3.199176  
     262A      3.208795   263A      3.214403   264A      3.334816  
     265A      3.341836   266A      3.354571   267A      3.355739  
     268A      3.363904   269A      3.459620   270A      3.495490  
     271A      3.518556   272A      3.570513   273A      3.609968  
     274A      3.708208   275A      3.727715   276A      3.768295  
     277A      3.779367   278A      3.799121   279A      3.858962  
     280A      3.871719   281A      4.004895   282A      4.109046  
     283A      4.213722   284A      4.637779   285A      4.639832  
     286A      4.697044   287A      4.772790   288A      4.881074  
     289A      5.022443   290A      5.255734   291A      5.374232  
     292A      5.495901   293A      5.611415   294A      5.717258  
     295A      5.884934   296A      6.090646   297A      6.199175  
     298A     18.256564   299A     18.591109   300A     19.301539  
     301A     25.313000   302A     25.454206  

    Final Occupation by Irrep:
              A 
    DOCC [    18 ]

  @DF-RHF Final Energy:  -224.84369629365511

   => Energetics <=

    Nuclear Repulsion Energy =            164.0866960309782598
    One-Electron Energy =                -628.9319565512702184
    Two-Electron Energy =                 240.0015642266368445
    Total Energy =                       -224.8436962936551140

Computation Completed


Properties will be evaluated at   0.000000,   0.000000,   0.000000 [a0]

Properties computed using the SCF density matrix

  Nuclear Dipole Moment: [e a0]
     X:    58.9366      Y: -1117.2932      Z:  -162.8238

  Electronic Dipole Moment: [e a0]
     X:   -58.1328      Y:  1117.1300      Z:   161.4914

  Dipole Moment: [e a0]
     X:     0.8038      Y:    -0.1633      Z:    -1.3324     Total:     1.5646

  Dipole Moment: [D]
     X:     2.0431      Y:    -0.4150      Z:    -3.3867     Total:     3.9769


*** tstop() called on ds1 at Tue Sep 14 17:33:21 2021
Module time:
	user time   =      17.35 seconds =       0.29 minutes
	system time =       0.35 seconds =       0.01 minutes
	total time  =          4 seconds =       0.07 minutes
Total time:
	user time   =      58.09 seconds =       0.97 minutes
	system time =       1.26 seconds =       0.02 minutes
	total time  =         13 seconds =       0.22 minutes
  Constructing Basis Sets for SAPT...

   => Loading Basis Set <=

    Name: (AUG-CC-PVDZ AUX)
    Role: RIFIT
    Keyword: DF_BASIS_SAPT
    atoms 1-2, 10-11 entry N          line   158 file /theoryfs2/ds/csargent/miniconda3/envs/cle/share/psi4/basis/aug-cc-pvdz-ri.gbs 
    atoms 3-6, 12-15 entry H          line    30 file /theoryfs2/ds/csargent/miniconda3/envs/cle/share/psi4/basis/aug-cc-pvdz-ri.gbs 
    atoms 7-9, 16-18 entry C          line   112 file /theoryfs2/ds/csargent/miniconda3/envs/cle/share/psi4/basis/aug-cc-pvdz-ri.gbs 


  //>>>>>>>>>>>>>>>>>>>>>>>>>>>>>>>>>>>//
  //               SAPT0               //
  //<<<<<<<<<<<<<<<<<<<<<<<<<<<<<<<<<<<//


*** tstart() called on ds1
*** at Tue Sep 14 17:33:21 2021

        SAPT0  
    Ed Hohenstein
     6 June 2009

      Orbital Information
  --------------------------
    NSO        =       302
    NMO        =       302
    NRI        =       904
    NOCC A     =        18
    NOCC B     =        18
    FOCC A     =         5
    FOCC B     =         5
    NVIR A     =       284
    NVIR B     =       284

    Elst10,r            =     0.000060773014 [Eh]
    Exch10              =     0.000000000026 [Eh]
    Exch10 (S^2)        =     0.000000000026 [Eh]

    Iter     Energy [mEh]          dE [mEh]         Residual      Time [s]
       1      -0.00009975       0.000099751       0.100390704             0
       2      -0.00009395      -0.000005803       0.028017440             0
       3      -0.00010251       0.000008566       0.011667854             0
       4      -0.00010435       0.000001833       0.002838674             0
       5      -0.00010424      -0.000000108       0.001331250             0
       6      -0.00010409      -0.000000149       0.000369001             1
       7      -0.00010410       0.000000007       0.000136125             1
       8      -0.00010411       0.000000010       0.000052049             1
       9      -0.00010411       0.000000001       0.000017333             1
      10      -0.00010411      -0.000000002       0.000003589             1
      11      -0.00010411       0.000000000       0.000001160             1
      12      -0.00010411       0.000000000       0.000000351             1

    CHF Iterations converged


    Iter     Energy [mEh]          dE [mEh]         Residual      Time [s]
       1      -0.00009977       0.000099770       0.104203496             0
       2      -0.00009402      -0.000005754       0.028987586             1
       3      -0.00010529       0.000011273       0.010692836             1
       4      -0.00010637       0.000001085       0.004399870             1
       5      -0.00010602      -0.000000357       0.002028063             1
       6      -0.00010590      -0.000000120       0.000649908             1
       7      -0.00010594       0.000000038       0.000247753             1
       8      -0.00010595       0.000000017       0.000075941             1
       9      -0.00010595      -0.000000003       0.000025854             1
      10      -0.00010595      -0.000000002       0.000004784             2
      11      -0.00010595       0.000000001       0.000001258             2
      12      -0.00010595       0.000000000       0.000000400             2

    CHF Iterations converged

    Ind20,r (A<-B)      =    -0.000000104106 [Eh]
    Ind20,r (B<-A)      =    -0.000000105948 [Eh]
    Ind20,r             =    -0.000000210055 [Eh]
    Exch-Ind20,r (A<-B) =     0.000000000027 [Eh]
    Exch-Ind20,r (B<-A) =     0.000000000015 [Eh]
    Exch-Ind20,r        =     0.000000000042 [Eh]
    Disp20              =    -0.000002487337 [Eh]
    Disp20 (SS)         =    -0.000001243668 [Eh]
    Disp20 (OS)         =    -0.000001243668 [Eh]
    Exch-Disp20         =     0.000000000002 [Eh]
    Exch-Disp20 (SS)    =     0.000000000002 [Eh]
    Exch-Disp20 (OS)    =     0.000000000000 [Eh]

    SAPT Results 
  --------------------------------------------------------------------------------------------------------
    Electrostatics                  0.06077301 [mEh]       0.03813564 [kcal/mol]       0.15955953 [kJ/mol]
      Elst10,r                      0.06077301 [mEh]       0.03813564 [kcal/mol]       0.15955953 [kJ/mol]

    Exchange                        0.00000003 [mEh]       0.00000002 [kcal/mol]       0.00000007 [kJ/mol]
      Exch10                        0.00000003 [mEh]       0.00000002 [kcal/mol]       0.00000007 [kJ/mol]
      Exch10(S^2)                   0.00000003 [mEh]       0.00000002 [kcal/mol]       0.00000007 [kJ/mol]

    Induction                      -0.00018827 [mEh]      -0.00011814 [kcal/mol]      -0.00049432 [kJ/mol]
      Ind20,r                      -0.00021005 [mEh]      -0.00013181 [kcal/mol]      -0.00055150 [kJ/mol]
      Exch-Ind20,r                  0.00000004 [mEh]       0.00000003 [kcal/mol]       0.00000011 [kJ/mol]
      delta HF,r (2)                0.00002174 [mEh]       0.00001364 [kcal/mol]       0.00005707 [kJ/mol]

    Dispersion                     -0.00248733 [mEh]      -0.00156083 [kcal/mol]      -0.00653050 [kJ/mol]
      Disp20                       -0.00248734 [mEh]      -0.00156083 [kcal/mol]      -0.00653050 [kJ/mol]
      Exch-Disp20                   0.00000000 [mEh]       0.00000000 [kcal/mol]       0.00000001 [kJ/mol]
      Disp20 (SS)                  -0.00124367 [mEh]      -0.00078041 [kcal/mol]      -0.00326525 [kJ/mol]
      Disp20 (OS)                  -0.00124367 [mEh]      -0.00078041 [kcal/mol]      -0.00326525 [kJ/mol]
      Exch-Disp20 (SS)              0.00000000 [mEh]       0.00000000 [kcal/mol]       0.00000000 [kJ/mol]
      Exch-Disp20 (OS)              0.00000000 [mEh]       0.00000000 [kcal/mol]       0.00000000 [kJ/mol]

  Total HF                          0.06058476 [mEh]       0.03801751 [kcal/mol]       0.15906528 [kJ/mol]
  Total SAPT0                       0.05809743 [mEh]       0.03645669 [kcal/mol]       0.15253478 [kJ/mol]

  Special recipe for scaled SAPT0 (see Manual):
    Electrostatics sSAPT0           0.06077301 [mEh]       0.03813564 [kcal/mol]       0.15955953 [kJ/mol]
    Exchange sSAPT0                 0.00000003 [mEh]       0.00000002 [kcal/mol]       0.00000007 [kJ/mol]
    Induction sSAPT0               -0.00018827 [mEh]      -0.00011814 [kcal/mol]      -0.00049432 [kJ/mol]
    Dispersion sSAPT0              -0.00248733 [mEh]      -0.00156083 [kcal/mol]      -0.00653050 [kJ/mol]
  Total sSAPT0                      0.05809743 [mEh]       0.03645669 [kcal/mol]       0.15253478 [kJ/mol]
  --------------------------------------------------------------------------------------------------------

*** tstop() called on ds1 at Tue Sep 14 17:33:30 2021
Module time:
	user time   =      45.61 seconds =       0.76 minutes
	system time =       3.99 seconds =       0.07 minutes
	total time  =          9 seconds =       0.15 minutes
Total time:
	user time   =     104.34 seconds =       1.74 minutes
	system time =       5.26 seconds =       0.09 minutes
	total time  =         22 seconds =       0.37 minutes


Warning! sapt0 does not have an associated derived wavefunction.The returned wavefunction is the dimer SCF wavefunction.


    Psi4 stopped on: Tuesday, 14 September 2021 05:33PM
    Psi4 wall time for execution: 0:00:22.18

*** Psi4 exiting successfully. Buy a developer a beer!
