
    -----------------------------------------------------------------------
          Psi4: An Open-Source Ab Initio Electronic Structure Package
                               Psi4 1.4rc3

                         Git: Rev {HEAD} 080dba6


    D. G. A. Smith, L. A. Burns, A. C. Simmonett, R. M. Parrish,
    M. C. Schieber, R. Galvelis, P. Kraus, H. Kruse, R. Di Remigio,
    A. Alenaizan, A. M. James, S. Lehtola, J. P. Misiewicz, M. Scheurer,
    R. A. Shaw, J. B. Schriber, Y. Xie, Z. L. Glick, D. A. Sirianni,
    J. S. O'Brien, J. M. Waldrop, A. Kumar, E. G. Hohenstein,
    B. P. Pritchard, B. R. Brooks, H. F. Schaefer III, A. Yu. Sokolov,
    K. Patkowski, A. E. DePrince III, U. Bozkaya, R. A. King,
    F. A. Evangelista, J. M. Turney, T. D. Crawford, C. D. Sherrill,
    J. Chem. Phys. 152(18) 184108 (2020). https://doi.org/10.1063/5.0006002

                            Additional Code Authors
    E. T. Seidl, C. L. Janssen, E. F. Valeev, M. L. Leininger,
    J. F. Gonthier, R. M. Richard, H. R. McAlexander, M. Saitow, X. Wang,
    P. Verma, and M. H. Lechner

             Previous Authors, Complete List of Code Contributors,
                       and Citations for Specific Modules
    https://github.com/psi4/psi4/blob/master/codemeta.json
    https://github.com/psi4/psi4/graphs/contributors
    http://psicode.org/psi4manual/master/introduction.html#citing-psifour

    -----------------------------------------------------------------------


    Psi4 started on: Tuesday, 14 September 2021 05:23PM

    Process ID: 2926
    Host:       ds1
    PSIDATADIR: /theoryfs2/ds/csargent/miniconda3/envs/cle/share/psi4
    Memory:     500.0 MiB
    Threads:    6

  ==> Input File <==

--------------------------------------------------------------------------
# PSI4 file produced by CrystaLattE

# Generated from:               imidazole.xyz
# Psithon input for N-mer:      2mer-0+184
# Number of atoms per monomer:  [9, 9]
# Number of replicas:           2
# COM priority:                 2.396773443037e-05
# Minimum COM separations:      18.354
# Separation priority:          4.619081635850e-05
# Minimum monomer separations:  14.749
# Cutoff priority:              1.657324372671e-06
# Nuclear repulsion energy:     365.546632030143

memory 7 GB

molecule Dimer_0_184 {
  N           -4.29309621      -3.06837431       5.30516231
  N           -2.15847371      -2.92627296       1.72037448
  H           -0.02545587      -6.35903575       2.22046452
  H           -2.68566968      -6.53260241       6.61445954
  H           -4.74388423      -0.00609006       2.75615968
  H           -1.41045540      -2.24723147       0.00000000
  C           -1.43737991      -5.07504848       2.94065891
  C           -2.76900782      -5.14609916       5.13522880
  C           -3.85955036      -1.77728198       3.21093411
--
  N            0.18908973      29.34697536      -2.78690955
  N            2.32371223      29.20487400      -6.37169738
  H            4.45673008      32.63763679      -5.87160734
  H            1.79651626      32.81120345      -1.47761232
  H           -0.26169828      26.28469110      -5.33591219
  H            3.07173054      28.52583251      -8.09207186
  C            3.04480603      31.35364953      -5.15141295
  C            1.71317812      31.42470020      -2.95684306
  C            0.62263559      28.05588302      -4.88113775
units = au
no_com
no_reorient
}

set {
  e_convergence 10
  d_convergence 10
  scf_type df
  mp2_type df
  cc_type df
  freeze_core true
}

energy('sapt0/aug-cc-pvdz')

--------------------------------------------------------------------------

  Memory set to   6.519 GiB by Python driver.

Scratch directory: /scratch/csargent/psi4.31446.79897/

Scratch directory: /scratch/csargent/psi4.31446.79897/

  //>>>>>>>>>>>>>>>>>>>>>>>>>>>>>>>>>>>//
  //              Dimer HF             //
  //<<<<<<<<<<<<<<<<<<<<<<<<<<<<<<<<<<<//


*** tstart() called on ds1
*** at Tue Sep 14 17:23:07 2021

   => Loading Basis Set <=

    Name: AUG-CC-PVDZ
    Role: ORBITAL
    Keyword: BASIS
    atoms 1-2, 10-11 entry N          line   218 file /theoryfs2/ds/csargent/miniconda3/envs/cle/share/psi4/basis/aug-cc-pvdz.gbs
    atoms 3-6, 12-15 entry H          line    40 file /theoryfs2/ds/csargent/miniconda3/envs/cle/share/psi4/basis/aug-cc-pvdz.gbs
    atoms 7-9, 16-18 entry C          line   182 file /theoryfs2/ds/csargent/miniconda3/envs/cle/share/psi4/basis/aug-cc-pvdz.gbs


         ---------------------------------------------------------
                                   SCF
               by Justin Turney, Rob Parrish, Andy Simmonett
                          and Daniel G. A. Smith
                              RHF Reference
                        6 Threads,   6675 MiB Core
         ---------------------------------------------------------

  ==> Geometry <==

    Molecular point group: c1
    Full point group: C1

    Geometry (in Bohr), charge = 0, multiplicity = 1:

       Center              X                  Y                   Z               Mass
    ------------   -----------------  -----------------  -----------------  -----------------
         N           -4.293096210000    -3.068374310000     5.305162310000    14.003074004430
         N           -2.158473710000    -2.926272960000     1.720374480000    14.003074004430
         H           -0.025455870000    -6.359035750000     2.220464520000     1.007825032230
         H           -2.685669680000    -6.532602410000     6.614459540000     1.007825032230
         H           -4.743884230000    -0.006090060000     2.756159680000     1.007825032230
         H           -1.410455400000    -2.247231470000     0.000000000000     1.007825032230
         C           -1.437379910000    -5.075048480000     2.940658910000    12.000000000000
         C           -2.769007820000    -5.146099160000     5.135228800000    12.000000000000
         C           -3.859550360000    -1.777281980000     3.210934110000    12.000000000000
         N            0.189089730000    29.346975360000    -2.786909550000    14.003074004430
         N            2.323712230000    29.204874000000    -6.371697380000    14.003074004430
         H            4.456730080000    32.637636790000    -5.871607340000     1.007825032230
         H            1.796516260000    32.811203450000    -1.477612320000     1.007825032230
         H           -0.261698280000    26.284691100000    -5.335912190000     1.007825032230
         H            3.071730540000    28.525832510000    -8.092071860000     1.007825032230
         C            3.044806030000    31.353649530000    -5.151412950000    12.000000000000
         C            1.713178120000    31.424700200000    -2.956843060000    12.000000000000
         C            0.622635590000    28.055883020000    -4.881137750000    12.000000000000

  Running in c1 symmetry.

  Rotational constants: A =      0.03865  B =      0.00094  C =      0.00092 [cm^-1]
  Rotational constants: A =   1158.63248  B =     28.29531  C =     27.70422 [MHz]
  Nuclear repulsion =  365.546632154580209

  Charge       = 0
  Multiplicity = 1
  Electrons    = 72
  Nalpha       = 36
  Nbeta        = 36

  ==> Algorithm <==

  SCF Algorithm Type is DF.
  DIIS enabled.
  MOM disabled.
  Fractional occupation disabled.
  Guess Type is SAD.
  Energy threshold   = 1.00e-10
  Density threshold  = 1.00e-10
  Integral threshold = 1.00e-12

  ==> Primary Basis <==

  Basis Set: AUG-CC-PVDZ
    Blend: AUG-CC-PVDZ
    Number of shells: 130
    Number of basis functions: 302
    Number of Cartesian functions: 322
    Spherical Harmonics?: true
    Max angular momentum: 2

   => Loading Basis Set <=

    Name: (AUG-CC-PVDZ AUX)
    Role: JKFIT
    Keyword: DF_BASIS_SCF
    atoms 1-2, 10-11 entry N          line   212 file /theoryfs2/ds/csargent/miniconda3/envs/cle/share/psi4/basis/aug-cc-pvdz-jkfit.gbs
    atoms 3-6, 12-15 entry H          line    70 file /theoryfs2/ds/csargent/miniconda3/envs/cle/share/psi4/basis/aug-cc-pvdz-jkfit.gbs
    atoms 7-9, 16-18 entry C          line   154 file /theoryfs2/ds/csargent/miniconda3/envs/cle/share/psi4/basis/aug-cc-pvdz-jkfit.gbs

  ==> Integral Setup <==

  ==> DiskDFJK: Density-Fitted J/K Matrices <==

    J tasked:                  Yes
    K tasked:                  Yes
    wK tasked:                  No
    OpenMP threads:              6
    Integrals threads:           6
    Memory [MiB]:             5006
    Algorithm:                Core
    Integral Cache:           SAVE
    Schwarz Cutoff:          1E-12
    Fitting Condition:       1E-10

   => Auxiliary Basis Set <=

  Basis Set: (AUG-CC-PVDZ AUX)
    Blend: AUG-CC-PVDZ-JKFIT
    Number of shells: 376
    Number of basis functions: 1116
    Number of Cartesian functions: 1290
    Spherical Harmonics?: true
    Max angular momentum: 3

  Minimum eigenvalue in the overlap matrix is 2.1837060237E-05.
  Reciprocal condition number of the overlap matrix is 1.8394511226E-06.
    Using symmetric orthogonalization.

  ==> Pre-Iterations <==

  SCF Guess: Superposition of Atomic Densities via on-the-fly atomic UHF (no occupation information).

   -------------------------
    Irrep   Nso     Nmo
   -------------------------
     A        302     302
   -------------------------
    Total     302     302
   -------------------------

  ==> Iterations <==

                           Total Energy        Delta E     RMS |[F,P]|

   @DF-RHF iter SAD:  -449.11714339640537   -4.49117e+02   0.00000e+00
   @DF-RHF iter   1:  -449.39596408490445   -2.78821e-01   2.30652e-03 DIIS
   @DF-RHF iter   2:  -449.61048673575414   -2.14523e-01   1.31229e-03 DIIS
   @DF-RHF iter   3:  -449.68331266718707   -7.28259e-02   2.46318e-04 DIIS
   @DF-RHF iter   4:  -449.68668710189490   -3.37443e-03   1.13123e-04 DIIS
   @DF-RHF iter   5:  -449.68729168214134   -6.04580e-04   1.78878e-05 DIIS
   @DF-RHF iter   6:  -449.68732637821091   -3.46961e-05   7.95114e-06 DIIS
   @DF-RHF iter   7:  -449.68733255885451   -6.18064e-06   3.10628e-06 DIIS
   @DF-RHF iter   8:  -449.68733402362903   -1.46477e-06   1.10000e-06 DIIS
   @DF-RHF iter   9:  -449.68733424530774   -2.21679e-07   2.66588e-07 DIIS
   @DF-RHF iter  10:  -449.68733425639277   -1.10850e-08   1.04496e-07 DIIS
   @DF-RHF iter  11:  -449.68733425806755   -1.67478e-09   4.62150e-08 DIIS
   @DF-RHF iter  12:  -449.68733425837297   -3.05420e-10   1.37815e-08 DIIS
   @DF-RHF iter  13:  -449.68733425839974   -2.67733e-11   5.08850e-09 DIIS
   @DF-RHF iter  14:  -449.68733425840298   -3.24007e-12   2.24209e-09 DIIS
   @DF-RHF iter  15:  -449.68733425840395   -9.66338e-13   7.52829e-10 DIIS
   @DF-RHF iter  16:  -449.68733425840304    9.09495e-13   3.41042e-10 DIIS
   @DF-RHF iter  17:  -449.68733425840355   -5.11591e-13   8.67187e-11 DIIS
  Energy and wave function converged.


  ==> Post-Iterations <==

    Orbital Energies [Eh]
    ---------------------

    Doubly Occupied:

       1A    -15.637664     2A    -15.636900     3A    -15.551781
       4A    -15.550995     5A    -11.301501     6A    -11.300709
       7A    -11.263703     8A    -11.262980     9A    -11.246182
      10A    -11.245468    11A     -1.353441    12A     -1.352679
      13A     -1.169668    14A     -1.168903    15A     -1.012658
      16A     -1.011909    17A     -0.824969    18A     -0.824207
      19A     -0.804286    20A     -0.803543    21A     -0.761244
      22A     -0.760476    23A     -0.610662    24A     -0.609908
      25A     -0.604535    26A     -0.603772    27A     -0.602482
      28A     -0.601748    29A     -0.571489    30A     -0.570736
      31A     -0.436032    32A     -0.435254    33A     -0.401022
      34A     -0.400264    35A     -0.321239    36A     -0.320495

    Virtual:

      37A      0.024644    38A      0.025373    39A      0.040917
      40A      0.041727    41A      0.049491    42A      0.050220
      43A      0.061308    44A      0.062041    45A      0.088471
      46A      0.089317    47A      0.100796    48A      0.101644
      49A      0.120225    50A      0.121030    51A      0.125088
      52A      0.125729    53A      0.132862    54A      0.133330
      55A      0.133510    56A      0.133981    57A      0.140415
      58A      0.141155    59A      0.156008    60A      0.156599
      61A      0.157878    62A      0.158932    63A      0.171624
      64A      0.172206    65A      0.177582    66A      0.178353
      67A      0.186525    68A      0.187413    69A      0.210991
      70A      0.211795    71A      0.219705    72A      0.220469
      73A      0.231828    74A      0.232569    75A      0.240840
      76A      0.241576    77A      0.261029    78A      0.261764
      79A      0.267326    80A      0.268090    81A      0.277381
      82A      0.278176    83A      0.301154    84A      0.301941
      85A      0.313841    86A      0.314708    87A      0.337698
      88A      0.338377    89A      0.360944    90A      0.361628
      91A      0.370153    92A      0.370896    93A      0.379198
      94A      0.379931    95A      0.387691    96A      0.388470
      97A      0.396527    98A      0.397261    99A      0.416448
     100A      0.417278   101A      0.428471   102A      0.429224
     103A      0.451456   104A      0.452265   105A      0.465750
     106A      0.466534   107A      0.480621   108A      0.481388
     109A      0.485754   110A      0.486456   111A      0.487606
     112A      0.488349   113A      0.551116   114A      0.551897
     115A      0.555810   116A      0.556554   117A      0.567705
     118A      0.568468   119A      0.575870   120A      0.576674
     121A      0.593670   122A      0.594408   123A      0.598359
     124A      0.599098   125A      0.615543   126A      0.616288
     127A      0.636001   128A      0.636710   129A      0.651944
     130A      0.652711   131A      0.668733   132A      0.669473
     133A      0.670782   134A      0.671528   135A      0.677581
     136A      0.678355   137A      0.683348   138A      0.684051
     139A      0.714134   140A      0.714874   141A      0.725168
     142A      0.725917   143A      0.740674   144A      0.741434
     145A      0.762137   146A      0.762906   147A      0.766839
     148A      0.767604   149A      0.790369   150A      0.791105
     151A      0.793001   152A      0.793826   153A      0.809167
     154A      0.809922   155A      0.859836   156A      0.860585
     157A      0.870869   158A      0.871615   159A      0.885221
     160A      0.885976   161A      0.889314   162A      0.889994
     163A      0.953785   164A      0.954544   165A      0.976373
     166A      0.977144   167A      0.997794   168A      0.998563
     169A      1.010164   170A      1.010928   171A      1.016861
     172A      1.017601   173A      1.030089   174A      1.030873
     175A      1.076792   176A      1.077572   177A      1.083970
     178A      1.084748   179A      1.126438   180A      1.127176
     181A      1.139947   182A      1.140701   183A      1.148995
     184A      1.149753   185A      1.166613   186A      1.167367
     187A      1.216886   188A      1.217656   189A      1.260162
     190A      1.260890   191A      1.302000   192A      1.302737
     193A      1.384428   194A      1.385207   195A      1.397589
     196A      1.398359   197A      1.450574   198A      1.451339
     199A      1.502724   200A      1.503493   201A      1.517840
     202A      1.518594   203A      1.573583   204A      1.573753
     205A      1.574309   206A      1.574486   207A      1.595818
     208A      1.596566   209A      1.651601   210A      1.652354
     211A      1.670975   212A      1.671690   213A      1.704751
     214A      1.705468   215A      1.723865   216A      1.724701
     217A      1.782092   218A      1.782824   219A      1.798525
     220A      1.799255   221A      1.806538   222A      1.807258
     223A      1.864384   224A      1.865155   225A      1.880875
     226A      1.881683   227A      1.923816   228A      1.924596
     229A      1.964419   230A      1.965175   231A      2.021429
     232A      2.022172   233A      2.024855   234A      2.025602
     235A      2.072418   236A      2.073164   237A      2.106496
     238A      2.107244   239A      2.126218   240A      2.126943
     241A      2.135426   242A      2.136147   243A      2.168108
     244A      2.168853   245A      2.178239   246A      2.178997
     247A      2.266508   248A      2.267265   249A      2.275385
     250A      2.276163   251A      2.300325   252A      2.301125
     253A      2.331494   254A      2.332266   255A      2.417215
     256A      2.417934   257A      2.496319   258A      2.497089
     259A      2.513459   260A      2.514226   261A      2.544727
     262A      2.545513   263A      2.585187   264A      2.585927
     265A      2.633208   266A      2.633958   267A      2.733557
     268A      2.734277   269A      2.746455   270A      2.747224
     271A      2.766537   272A      2.767274   273A      2.793582
     274A      2.794338   275A      2.802878   276A      2.803645
     277A      2.837058   278A      2.837817   279A      2.866632
     280A      2.867408   281A      2.952162   282A      2.952922
     283A      2.980295   284A      2.981068   285A      3.050651
     286A      3.051386   287A      3.069353   288A      3.070100
     289A      3.198582   290A      3.199359   291A      3.208228
     292A      3.208984   293A      3.334233   294A      3.335009
     295A      3.354010   296A      3.354769   297A      3.517991
     298A      3.518750   299A      3.767728   300A      3.768494
     301A      4.108464   302A      4.109197

    Final Occupation by Irrep:
              A
    DOCC [    36 ]

  @DF-RHF Final Energy:  -449.68733425840355

   => Energetics <=

    Nuclear Repulsion Energy =            365.5466321545802089
    One-Electron Energy =               -1332.5969275205898157
    Two-Electron Energy =                 517.3629611076059973
    Total Energy =                       -449.6873342584035527

Computation Completed


Properties will be evaluated at   0.000000,   0.000000,   0.000000 [a0]

Properties computed using the SCF density matrix

  Nuclear Dipole Moment: [e a0]
     X:   -43.4855      Y:   946.0296      Z:   -34.3330

  Electronic Dipole Moment: [e a0]
     X:    45.0919      Y:  -946.0264      Z:    31.6713

  Dipole Moment: [e a0]
     X:     1.6064      Y:     0.0032      Z:    -2.6617     Total:     3.1089

  Dipole Moment: [D]
     X:     4.0831      Y:     0.0081      Z:    -6.7654     Total:     7.9021


*** tstop() called on ds1 at Tue Sep 14 17:23:12 2021
Module time:
	user time   =      23.11 seconds =       0.39 minutes
	system time =       0.59 seconds =       0.01 minutes
	total time  =          5 seconds =       0.08 minutes
Total time:
	user time   =      23.11 seconds =       0.39 minutes
	system time =       0.59 seconds =       0.01 minutes
	total time  =          5 seconds =       0.08 minutes

  //>>>>>>>>>>>>>>>>>>>>>>>>>>>>>>>>>>>//
  //            Monomer A HF           //
  //<<<<<<<<<<<<<<<<<<<<<<<<<<<<<<<<<<<//


*** tstart() called on ds1
*** at Tue Sep 14 17:23:12 2021

   => Loading Basis Set <=

    Name: AUG-CC-PVDZ
    Role: ORBITAL
    Keyword: BASIS
    atoms 1-2, 10-11 entry N          line   218 file /theoryfs2/ds/csargent/miniconda3/envs/cle/share/psi4/basis/aug-cc-pvdz.gbs
    atoms 3-6, 12-15 entry H          line    40 file /theoryfs2/ds/csargent/miniconda3/envs/cle/share/psi4/basis/aug-cc-pvdz.gbs
    atoms 7-9, 16-18 entry C          line   182 file /theoryfs2/ds/csargent/miniconda3/envs/cle/share/psi4/basis/aug-cc-pvdz.gbs


         ---------------------------------------------------------
                                   SCF
               by Justin Turney, Rob Parrish, Andy Simmonett
                          and Daniel G. A. Smith
                              RHF Reference
                        6 Threads,   6675 MiB Core
         ---------------------------------------------------------

  ==> Geometry <==

    Molecular point group: c1
    Full point group: C1

    Geometry (in Bohr), charge = 0, multiplicity = 1:

       Center              X                  Y                   Z               Mass
    ------------   -----------------  -----------------  -----------------  -----------------
         N           -4.293096210000    -3.068374310000     5.305162310000    14.003074004430
         N           -2.158473710000    -2.926272960000     1.720374480000    14.003074004430
         H           -0.025455870000    -6.359035750000     2.220464520000     1.007825032230
         H           -2.685669680000    -6.532602410000     6.614459540000     1.007825032230
         H           -4.743884230000    -0.006090060000     2.756159680000     1.007825032230
         H           -1.410455400000    -2.247231470000     0.000000000000     1.007825032230
         C           -1.437379910000    -5.075048480000     2.940658910000    12.000000000000
         C           -2.769007820000    -5.146099160000     5.135228800000    12.000000000000
         C           -3.859550360000    -1.777281980000     3.210934110000    12.000000000000
      Gh(N)           0.189089730000    29.346975360000    -2.786909550000    14.003074004430
      Gh(N)           2.323712230000    29.204874000000    -6.371697380000    14.003074004430
      Gh(H)           4.456730080000    32.637636790000    -5.871607340000     1.007825032230
      Gh(H)           1.796516260000    32.811203450000    -1.477612320000     1.007825032230
      Gh(H)          -0.261698280000    26.284691100000    -5.335912190000     1.007825032230
      Gh(H)           3.071730540000    28.525832510000    -8.092071860000     1.007825032230
      Gh(C)           3.044806030000    31.353649530000    -5.151412950000    12.000000000000
      Gh(C)           1.713178120000    31.424700200000    -2.956843060000    12.000000000000
      Gh(C)           0.622635590000    28.055883020000    -4.881137750000    12.000000000000

  Running in c1 symmetry.

  Rotational constants: A =      0.03865  B =      0.00094  C =      0.00092 [cm^-1]
  Rotational constants: A =   1158.63248  B =     28.29531  C =     27.70422 [MHz]
  Nuclear repulsion =  164.086695994184396

  Charge       = 0
  Multiplicity = 1
  Electrons    = 36
  Nalpha       = 18
  Nbeta        = 18

  ==> Algorithm <==

  SCF Algorithm Type is DF.
  DIIS enabled.
  MOM disabled.
  Fractional occupation disabled.
  Guess Type is SAD.
  Energy threshold   = 1.00e-10
  Density threshold  = 1.00e-10
  Integral threshold = 1.00e-12

  ==> Primary Basis <==

  Basis Set: AUG-CC-PVDZ
    Blend: AUG-CC-PVDZ
    Number of shells: 130
    Number of basis functions: 302
    Number of Cartesian functions: 322
    Spherical Harmonics?: true
    Max angular momentum: 2

   => Loading Basis Set <=

    Name: (AUG-CC-PVDZ AUX)
    Role: JKFIT
    Keyword: DF_BASIS_SCF
    atoms 1-2, 10-11 entry N          line   212 file /theoryfs2/ds/csargent/miniconda3/envs/cle/share/psi4/basis/aug-cc-pvdz-jkfit.gbs
    atoms 3-6, 12-15 entry H          line    70 file /theoryfs2/ds/csargent/miniconda3/envs/cle/share/psi4/basis/aug-cc-pvdz-jkfit.gbs
    atoms 7-9, 16-18 entry C          line   154 file /theoryfs2/ds/csargent/miniconda3/envs/cle/share/psi4/basis/aug-cc-pvdz-jkfit.gbs

  ==> Integral Setup <==

  ==> DiskDFJK: Density-Fitted J/K Matrices <==

    J tasked:                  Yes
    K tasked:                  Yes
    wK tasked:                  No
    OpenMP threads:              6
    Integrals threads:           6
    Memory [MiB]:             5006
    Algorithm:                Core
    Integral Cache:           LOAD
    Schwarz Cutoff:          1E-12
    Fitting Condition:       1E-10

   => Auxiliary Basis Set <=

  Basis Set: (AUG-CC-PVDZ AUX)
    Blend: AUG-CC-PVDZ-JKFIT
    Number of shells: 376
    Number of basis functions: 1116
    Number of Cartesian functions: 1290
    Spherical Harmonics?: true
    Max angular momentum: 3

  Minimum eigenvalue in the overlap matrix is 2.1837060237E-05.
  Reciprocal condition number of the overlap matrix is 1.8394511226E-06.
    Using symmetric orthogonalization.

  ==> Pre-Iterations <==

  SCF Guess: Superposition of Atomic Densities via on-the-fly atomic UHF (no occupation information).

   -------------------------
    Irrep   Nso     Nmo
   -------------------------
     A        302     302
   -------------------------
    Total     302     302
   -------------------------

  ==> Iterations <==

                           Total Energy        Delta E     RMS |[F,P]|

   @DF-RHF iter SAD:  -224.55857169469047   -2.24559e+02   0.00000e+00
   @DF-RHF iter   1:  -224.69806464771125   -1.39493e-01   1.63067e-03 DIIS
   @DF-RHF iter   2:  -224.80532026628450   -1.07256e-01   9.27384e-04 DIIS
   @DF-RHF iter   3:  -224.84168817020381   -3.63679e-02   1.74019e-04 DIIS
   @DF-RHF iter   4:  -224.84337342226647   -1.68525e-03   7.98972e-05 DIIS
   @DF-RHF iter   5:  -224.84367500297620   -3.01581e-04   1.26452e-05 DIIS
   @DF-RHF iter   6:  -224.84369234000835   -1.73370e-05   5.61871e-06 DIIS
   @DF-RHF iter   7:  -224.84369542807744   -3.08807e-06   2.19503e-06 DIIS
   @DF-RHF iter   8:  -224.84369615999614   -7.31919e-07   7.77587e-07 DIIS
   @DF-RHF iter   9:  -224.84369627078991   -1.10794e-07   1.87961e-07 DIIS
   @DF-RHF iter  10:  -224.84369627632555   -5.53564e-09   7.33125e-08 DIIS
   @DF-RHF iter  11:  -224.84369627715216   -8.26617e-10   3.26918e-08 DIIS
   @DF-RHF iter  12:  -224.84369627730391   -1.51744e-10   9.70884e-09 DIIS
   @DF-RHF iter  13:  -224.84369627731724   -1.33298e-11   3.58840e-09 DIIS
   @DF-RHF iter  14:  -224.84369627731894   -1.70530e-12   1.58275e-09 DIIS
   @DF-RHF iter  15:  -224.84369627731894    0.00000e+00   5.27556e-10 DIIS
   @DF-RHF iter  16:  -224.84369627731962   -6.82121e-13   2.34516e-10 DIIS
   @DF-RHF iter  17:  -224.84369627731897    6.53699e-13   4.71139e-11 DIIS
  Energy and wave function converged.


  ==> Post-Iterations <==

    Orbital Energies [Eh]
    ---------------------

    Doubly Occupied:

       1A    -15.637071     2A    -15.551216     3A    -11.300916
       4A    -11.263160     5A    -11.245653     6A     -1.352867
       7A     -1.169098     8A     -1.012098     9A     -0.824390
      10A     -0.803731    11A     -0.760666    12A     -0.610096
      13A     -0.603958    14A     -0.601922    15A     -0.570942
      16A     -0.435483    17A     -0.400464    18A     -0.320685

    Virtual:

      19A      0.022095    20A      0.025388    21A      0.039542
      22A      0.041580    23A      0.043203    24A      0.049997
      25A      0.061864    26A      0.067146    27A      0.076062
      28A      0.085686    29A      0.089096    30A      0.097102
      31A      0.101397    32A      0.120831    33A      0.124150
      34A      0.124663    35A      0.125577    36A      0.126426
      37A      0.126769    38A      0.133471    39A      0.133552
      40A      0.133774    41A      0.137688    42A      0.140942
      43A      0.156387    44A      0.156500    45A      0.158700
      46A      0.171988    47A      0.178189    48A      0.187224
      49A      0.191620    50A      0.207234    51A      0.208924
      52A      0.211559    53A      0.212112    54A      0.219837
      55A      0.220268    56A      0.222175    57A      0.232359
      58A      0.232639    59A      0.241408    60A      0.261605
      61A      0.267803    62A      0.271634    63A      0.277911
      64A      0.298939    65A      0.301746    66A      0.306014
      67A      0.314442    68A      0.318787    69A      0.338197
      70A      0.359667    71A      0.361489    72A      0.370745
      73A      0.375120    74A      0.379800    75A      0.388292
      76A      0.392966    77A      0.397097    78A      0.417031
      79A      0.427040    80A      0.429000    81A      0.434793
      82A      0.439956    83A      0.448534    84A      0.451639
      85A      0.452059    86A      0.466350    87A      0.467677
      88A      0.480582    89A      0.481229    90A      0.486283
      91A      0.488151    92A      0.516910    93A      0.520117
      94A      0.535476    95A      0.537750    96A      0.542704
      97A      0.551710    98A      0.555346    99A      0.556382
     100A      0.568280   101A      0.576474   102A      0.578893
     103A      0.587097   104A      0.594249   105A      0.598939
     106A      0.606088   107A      0.611576   108A      0.616080
     109A      0.617877   110A      0.636538   111A      0.639362
     112A      0.652504   113A      0.669282   114A      0.671337
     115A      0.677193   116A      0.678185   117A      0.683372
     118A      0.683874   119A      0.710774   120A      0.714698
     121A      0.725758   122A      0.735722   123A      0.741238
     124A      0.755658   125A      0.762698   126A      0.767400
     127A      0.790929   128A      0.793606   129A      0.797791
     130A      0.809747   131A      0.810056   132A      0.811963
     133A      0.822897   134A      0.836244   135A      0.859222
     136A      0.860398   137A      0.871425   138A      0.885765
     139A      0.886139   140A      0.889823   141A      0.909335
     142A      0.919231   143A      0.926512   144A      0.954351
     145A      0.968324   146A      0.976964   147A      0.991427
     148A      0.998360   149A      1.010706   150A      1.015031
     151A      1.017404   152A      1.030676   153A      1.058641
     154A      1.077353   155A      1.078178   156A      1.084552
     157A      1.103240   158A      1.115612   159A      1.126983
     160A      1.132021   161A      1.140497   162A      1.149565
     163A      1.167170   164A      1.170507   165A      1.173645
     166A      1.197140   167A      1.210149   168A      1.217445
     169A      1.260721   170A      1.277634   171A      1.290229
     172A      1.296612   173A      1.302539   174A      1.312158
     175A      1.317694   176A      1.347190   177A      1.383666
     178A      1.385028   179A      1.398145   180A      1.451143
     181A      1.494504   182A      1.503288   183A      1.515417
     184A      1.518410   185A      1.540933   186A      1.574127
     187A      1.574285   188A      1.596381   189A      1.652159
     190A      1.660545   191A      1.671505   192A      1.705286
     193A      1.724477   194A      1.782643   195A      1.799067
     196A      1.807063   197A      1.864950   198A      1.881477
     199A      1.924391   200A      1.964987   201A      2.022005
     202A      2.025429   203A      2.039354   204A      2.072981
     205A      2.100667   206A      2.107054   207A      2.119020
     208A      2.126759   209A      2.131034   210A      2.135965
     211A      2.149161   212A      2.168670   213A      2.178815
     214A      2.184853   215A      2.229381   216A      2.252446
     217A      2.267082   218A      2.275963   219A      2.300924
     220A      2.308376   221A      2.326835   222A      2.332072
     223A      2.376468   224A      2.405193   225A      2.413094
     226A      2.417758   227A      2.455470   228A      2.470513
     229A      2.493629   230A      2.496919   231A      2.514025
     232A      2.525539   233A      2.545207   234A      2.545345
     235A      2.576629   236A      2.585743   237A      2.599643
     238A      2.633765   239A      2.695959   240A      2.734093
     241A      2.747025   242A      2.767089   243A      2.790064
     244A      2.794149   245A      2.803444   246A      2.828680
     247A      2.837641   248A      2.867213   249A      2.895531
     250A      2.933099   251A      2.949195   252A      2.952738
     253A      2.980862   254A      3.043270   255A      3.051201
     256A      3.069910   257A      3.075990   258A      3.131648
     259A      3.159417   260A      3.182796   261A      3.199163
     262A      3.208795   263A      3.213237   264A      3.334816
     265A      3.340672   266A      3.354557   267A      3.354572
     268A      3.362742   269A      3.458457   270A      3.494306
     271A      3.518552   272A      3.569360   273A      3.608800
     274A      3.707049   275A      3.726555   276A      3.768294
     277A      3.778208   278A      3.797975   279A      3.857798
     280A      3.870555   281A      4.003729   282A      4.109022
     283A      4.212557   284A      4.636614   285A      4.638670
     286A      4.695852   287A      4.771632   288A      4.879900
     289A      5.021270   290A      5.254551   291A      5.373052
     292A      5.494715   293A      5.610252   294A      5.716106
     295A      5.883758   296A      6.089498   297A      6.198008
     298A     18.255397   299A     18.589917   300A     19.300357
     301A     25.311829   302A     25.453059

    Final Occupation by Irrep:
              A
    DOCC [    18 ]

  @DF-RHF Final Energy:  -224.84369627731897

   => Energetics <=

    Nuclear Repulsion Energy =            164.0866959941843959
    One-Electron Energy =                -628.9319562984429695
    Two-Electron Energy =                 240.0015640269395760
    Total Energy =                       -224.8436962773189691

Computation Completed


Properties will be evaluated at   0.000000,   0.000000,   0.000000 [a0]

Properties computed using the SCF density matrix

  Nuclear Dipole Moment: [e a0]
     X:  -102.4221      Y:  -129.0981      Z:   128.4908

  Electronic Dipole Moment: [e a0]
     X:   103.2259      Y:   129.2613      Z:  -129.8232

  Dipole Moment: [e a0]
     X:     0.8038      Y:     0.1633      Z:    -1.3324     Total:     1.5646

  Dipole Moment: [D]
     X:     2.0431      Y:     0.4150      Z:    -3.3867     Total:     3.9769


*** tstop() called on ds1 at Tue Sep 14 17:23:16 2021
Module time:
	user time   =      16.25 seconds =       0.27 minutes
	system time =       0.33 seconds =       0.01 minutes
	total time  =          4 seconds =       0.07 minutes
Total time:
	user time   =      39.53 seconds =       0.66 minutes
	system time =       0.92 seconds =       0.02 minutes
	total time  =          9 seconds =       0.15 minutes

  //>>>>>>>>>>>>>>>>>>>>>>>>>>>>>>>>>>>//
  //            Monomer B HF           //
  //<<<<<<<<<<<<<<<<<<<<<<<<<<<<<<<<<<<//


*** tstart() called on ds1
*** at Tue Sep 14 17:23:16 2021

   => Loading Basis Set <=

    Name: AUG-CC-PVDZ
    Role: ORBITAL
    Keyword: BASIS
    atoms 1-2, 10-11 entry N          line   218 file /theoryfs2/ds/csargent/miniconda3/envs/cle/share/psi4/basis/aug-cc-pvdz.gbs
    atoms 3-6, 12-15 entry H          line    40 file /theoryfs2/ds/csargent/miniconda3/envs/cle/share/psi4/basis/aug-cc-pvdz.gbs
    atoms 7-9, 16-18 entry C          line   182 file /theoryfs2/ds/csargent/miniconda3/envs/cle/share/psi4/basis/aug-cc-pvdz.gbs


         ---------------------------------------------------------
                                   SCF
               by Justin Turney, Rob Parrish, Andy Simmonett
                          and Daniel G. A. Smith
                              RHF Reference
                        6 Threads,   6675 MiB Core
         ---------------------------------------------------------

  ==> Geometry <==

    Molecular point group: c1
    Full point group: C1

    Geometry (in Bohr), charge = 0, multiplicity = 1:

       Center              X                  Y                   Z               Mass
    ------------   -----------------  -----------------  -----------------  -----------------
      Gh(N)          -4.293096210000    -3.068374310000     5.305162310000    14.003074004430
      Gh(N)          -2.158473710000    -2.926272960000     1.720374480000    14.003074004430
      Gh(H)          -0.025455870000    -6.359035750000     2.220464520000     1.007825032230
      Gh(H)          -2.685669680000    -6.532602410000     6.614459540000     1.007825032230
      Gh(H)          -4.743884230000    -0.006090060000     2.756159680000     1.007825032230
      Gh(H)          -1.410455400000    -2.247231470000     0.000000000000     1.007825032230
      Gh(C)          -1.437379910000    -5.075048480000     2.940658910000    12.000000000000
      Gh(C)          -2.769007820000    -5.146099160000     5.135228800000    12.000000000000
      Gh(C)          -3.859550360000    -1.777281980000     3.210934110000    12.000000000000
         N            0.189089730000    29.346975360000    -2.786909550000    14.003074004430
         N            2.323712230000    29.204874000000    -6.371697380000    14.003074004430
         H            4.456730080000    32.637636790000    -5.871607340000     1.007825032230
         H            1.796516260000    32.811203450000    -1.477612320000     1.007825032230
         H           -0.261698280000    26.284691100000    -5.335912190000     1.007825032230
         H            3.071730540000    28.525832510000    -8.092071860000     1.007825032230
         C            3.044806030000    31.353649530000    -5.151412950000    12.000000000000
         C            1.713178120000    31.424700200000    -2.956843060000    12.000000000000
         C            0.622635590000    28.055883020000    -4.881137750000    12.000000000000

  Running in c1 symmetry.

  Rotational constants: A =      0.03865  B =      0.00094  C =      0.00092 [cm^-1]
  Rotational constants: A =   1158.63248  B =     28.29531  C =     27.70422 [MHz]
  Nuclear repulsion =  164.086695984800571

  Charge       = 0
  Multiplicity = 1
  Electrons    = 36
  Nalpha       = 18
  Nbeta        = 18

  ==> Algorithm <==

  SCF Algorithm Type is DF.
  DIIS enabled.
  MOM disabled.
  Fractional occupation disabled.
  Guess Type is SAD.
  Energy threshold   = 1.00e-10
  Density threshold  = 1.00e-10
  Integral threshold = 1.00e-12

  ==> Primary Basis <==

  Basis Set: AUG-CC-PVDZ
    Blend: AUG-CC-PVDZ
    Number of shells: 130
    Number of basis functions: 302
    Number of Cartesian functions: 322
    Spherical Harmonics?: true
    Max angular momentum: 2

   => Loading Basis Set <=

    Name: (AUG-CC-PVDZ AUX)
    Role: JKFIT
    Keyword: DF_BASIS_SCF
    atoms 1-2, 10-11 entry N          line   212 file /theoryfs2/ds/csargent/miniconda3/envs/cle/share/psi4/basis/aug-cc-pvdz-jkfit.gbs
    atoms 3-6, 12-15 entry H          line    70 file /theoryfs2/ds/csargent/miniconda3/envs/cle/share/psi4/basis/aug-cc-pvdz-jkfit.gbs
    atoms 7-9, 16-18 entry C          line   154 file /theoryfs2/ds/csargent/miniconda3/envs/cle/share/psi4/basis/aug-cc-pvdz-jkfit.gbs

  ==> Integral Setup <==

  ==> DiskDFJK: Density-Fitted J/K Matrices <==

    J tasked:                  Yes
    K tasked:                  Yes
    wK tasked:                  No
    OpenMP threads:              6
    Integrals threads:           6
    Memory [MiB]:             5006
    Algorithm:                Core
    Integral Cache:           LOAD
    Schwarz Cutoff:          1E-12
    Fitting Condition:       1E-10

   => Auxiliary Basis Set <=

  Basis Set: (AUG-CC-PVDZ AUX)
    Blend: AUG-CC-PVDZ-JKFIT
    Number of shells: 376
    Number of basis functions: 1116
    Number of Cartesian functions: 1290
    Spherical Harmonics?: true
    Max angular momentum: 3

  Minimum eigenvalue in the overlap matrix is 2.1837060237E-05.
  Reciprocal condition number of the overlap matrix is 1.8394511226E-06.
    Using symmetric orthogonalization.

  ==> Pre-Iterations <==

  SCF Guess: Superposition of Atomic Densities via on-the-fly atomic UHF (no occupation information).

   -------------------------
    Irrep   Nso     Nmo
   -------------------------
     A        302     302
   -------------------------
    Total     302     302
   -------------------------

  ==> Iterations <==

                           Total Energy        Delta E     RMS |[F,P]|

   @DF-RHF iter SAD:  -224.55857169453094   -2.24559e+02   0.00000e+00
   @DF-RHF iter   1:  -224.69806464731420   -1.39493e-01   1.63067e-03 DIIS
   @DF-RHF iter   2:  -224.80532026622777   -1.07256e-01   9.27384e-04 DIIS
   @DF-RHF iter   3:  -224.84168817054768   -3.63679e-02   1.74019e-04 DIIS
   @DF-RHF iter   4:  -224.84337342262813   -1.68525e-03   7.98972e-05 DIIS
   @DF-RHF iter   5:  -224.84367500334048   -3.01581e-04   1.26452e-05 DIIS
   @DF-RHF iter   6:  -224.84369234037302   -1.73370e-05   5.61871e-06 DIIS
   @DF-RHF iter   7:  -224.84369542844183   -3.08807e-06   2.19503e-06 DIIS
   @DF-RHF iter   8:  -224.84369616035994   -7.31918e-07   7.77587e-07 DIIS
   @DF-RHF iter   9:  -224.84369627115404   -1.10794e-07   1.87961e-07 DIIS
   @DF-RHF iter  10:  -224.84369627669031   -5.53626e-09   7.33125e-08 DIIS
   @DF-RHF iter  11:  -224.84369627751619   -8.25878e-10   3.26918e-08 DIIS
   @DF-RHF iter  12:  -224.84369627766841   -1.52227e-10   9.70884e-09 DIIS
   @DF-RHF iter  13:  -224.84369627768118   -1.27613e-11   3.58840e-09 DIIS
   @DF-RHF iter  14:  -224.84369627768316   -1.98952e-12   1.58275e-09 DIIS
   @DF-RHF iter  15:  -224.84369627768385   -6.82121e-13   5.27556e-10 DIIS
   @DF-RHF iter  16:  -224.84369627768342    4.26326e-13   2.34517e-10 DIIS
   @DF-RHF iter  17:  -224.84369627768376   -3.41061e-13   4.71138e-11 DIIS
  Energy and wave function converged.


  ==> Post-Iterations <==

    Orbital Energies [Eh]
    ---------------------

    Doubly Occupied:

       1A    -15.637071     2A    -15.551216     3A    -11.300916
       4A    -11.263160     5A    -11.245653     6A     -1.352867
       7A     -1.169098     8A     -1.012098     9A     -0.824390
      10A     -0.803731    11A     -0.760666    12A     -0.610096
      13A     -0.603958    14A     -0.601922    15A     -0.570942
      16A     -0.435483    17A     -0.400464    18A     -0.320685

    Virtual:

      19A      0.022843    20A      0.025388    21A      0.040444
      22A      0.041580    23A      0.043792    24A      0.049997
      25A      0.061864    26A      0.067873    27A      0.076860
      28A      0.086546    29A      0.089096    30A      0.097831
      31A      0.101397    32A      0.120831    33A      0.124880
      34A      0.125335    35A      0.125577    36A      0.127113
      37A      0.127549    38A      0.133472    39A      0.133772
      40A      0.134492    41A      0.138342    42A      0.140942
      43A      0.156500    44A      0.156968    45A      0.158700
      46A      0.171988    47A      0.178189    48A      0.187224
      49A      0.192386    50A      0.208022    51A      0.209696
      52A      0.211559    53A      0.212915    54A      0.220267
      55A      0.220677    56A      0.222910    57A      0.232359
      58A      0.233348    59A      0.241408    60A      0.261605
      61A      0.267803    62A      0.272424    63A      0.277911
      64A      0.299764    65A      0.301746    66A      0.306751
      67A      0.314442    68A      0.319543    69A      0.338197
      70A      0.360539    71A      0.361489    72A      0.370745
      73A      0.375747    74A      0.379800    75A      0.388292
      76A      0.393766    77A      0.397097    78A      0.417031
      79A      0.427661    80A      0.429000    81A      0.435426
      82A      0.440731    83A      0.449299    84A      0.452059
      85A      0.452399    86A      0.466350    87A      0.468404
      88A      0.481229    89A      0.481380    90A      0.486283
      91A      0.488151    92A      0.517679    93A      0.520855
      94A      0.536319    95A      0.538505    96A      0.543426
      97A      0.551710    98A      0.556139    99A      0.556382
     100A      0.568280   101A      0.576474   102A      0.579641
     103A      0.587894   104A      0.594249   105A      0.598939
     106A      0.606761   107A      0.612419   108A      0.616080
     109A      0.618639   110A      0.636538   111A      0.640063
     112A      0.652504   113A      0.669282   114A      0.671337
     115A      0.677953   116A      0.678185   117A      0.683874
     118A      0.684092   119A      0.711560   120A      0.714698
     121A      0.725758   122A      0.736414   123A      0.741238
     124A      0.756444   125A      0.762698   126A      0.767400
     127A      0.790929   128A      0.793606   129A      0.798545
     130A      0.809747   131A      0.810803   132A      0.812836
     133A      0.823559   134A      0.836949   135A      0.859932
     136A      0.860398   137A      0.871425   138A      0.885765
     139A      0.886904   140A      0.889823   141A      0.910081
     142A      0.919991   143A      0.927256   144A      0.954351
     145A      0.969070   146A      0.976964   147A      0.992198
     148A      0.998360   149A      1.010706   150A      1.015796
     151A      1.017404   152A      1.030676   153A      1.059331
     154A      1.077353   155A      1.078943   156A      1.084552
     157A      1.104007   158A      1.116326   159A      1.126983
     160A      1.132771   161A      1.140497   162A      1.149565
     163A      1.167170   164A      1.171236   165A      1.174432
     166A      1.197923   167A      1.210925   168A      1.217445
     169A      1.260721   170A      1.278427   171A      1.291023
     172A      1.297377   173A      1.302539   174A      1.312921
     175A      1.318463   176A      1.347958   177A      1.384423
     178A      1.385028   179A      1.398145   180A      1.451143
     181A      1.495278   182A      1.503288   183A      1.516208
     184A      1.518410   185A      1.541692   186A      1.574127
     187A      1.574285   188A      1.596381   189A      1.652159
     190A      1.661296   191A      1.671505   192A      1.705286
     193A      1.724477   194A      1.782643   195A      1.799067
     196A      1.807063   197A      1.864950   198A      1.881477
     199A      1.924391   200A      1.964987   201A      2.022005
     202A      2.025429   203A      2.040048   204A      2.072981
     205A      2.101473   206A      2.107054   207A      2.119872
     208A      2.126759   209A      2.131772   210A      2.135965
     211A      2.149882   212A      2.168670   213A      2.178815
     214A      2.185464   215A      2.230110   216A      2.253167
     217A      2.267082   218A      2.275963   219A      2.300924
     220A      2.309067   221A      2.327628   222A      2.332072
     223A      2.377322   224A      2.405945   225A      2.413757
     226A      2.417758   227A      2.456151   228A      2.471276
     229A      2.494349   230A      2.496919   231A      2.514025
     232A      2.526352   233A      2.545345   234A      2.545963
     235A      2.577314   236A      2.585743   237A      2.600342
     238A      2.633765   239A      2.696648   240A      2.734093
     241A      2.747025   242A      2.767089   243A      2.790924
     244A      2.794149   245A      2.803444   246A      2.829348
     247A      2.837641   248A      2.867213   249A      2.896377
     250A      2.933757   251A      2.949896   252A      2.952738
     253A      2.980862   254A      3.044089   255A      3.051201
     256A      3.069910   257A      3.076745   258A      3.132484
     259A      3.160222   260A      3.183545   261A      3.199163
     262A      3.208795   263A      3.213980   264A      3.334816
     265A      3.341408   266A      3.354572   267A      3.355333
     268A      3.363444   269A      3.459240   270A      3.495108
     271A      3.518552   272A      3.570120   273A      3.609575
     274A      3.707814   275A      3.727304   276A      3.768294
     277A      3.778959   278A      3.798746   279A      3.858516
     280A      3.871344   281A      4.004500   282A      4.109022
     283A      4.213356   284A      4.637340   285A      4.639426
     286A      4.696586   287A      4.772412   288A      4.880668
     289A      5.022025   290A      5.255345   291A      5.373812
     292A      5.495485   293A      5.610962   294A      5.716861
     295A      5.884556   296A      6.090256   297A      6.198801
     298A     18.256060   299A     18.590805   300A     19.301018
     301A     25.312629   302A     25.453831

    Final Occupation by Irrep:
              A
    DOCC [    18 ]

  @DF-RHF Final Energy:  -224.84369627768376

   => Energetics <=

    Nuclear Repulsion Energy =            164.0866959848005706
    One-Electron Energy =                -628.9319562789825113
    Two-Electron Energy =                 240.0015640164981505
    Total Energy =                       -224.8436962776837618

Computation Completed


Properties will be evaluated at   0.000000,   0.000000,   0.000000 [a0]

Properties computed using the SCF density matrix

  Nuclear Dipole Moment: [e a0]
     X:    58.9366      Y:  1075.1277      Z:  -162.8238

  Electronic Dipole Moment: [e a0]
     X:   -58.1328      Y: -1075.2910      Z:   161.4914

  Dipole Moment: [e a0]
     X:     0.8038      Y:    -0.1633      Z:    -1.3324     Total:     1.5646

  Dipole Moment: [D]
     X:     2.0431      Y:    -0.4150      Z:    -3.3867     Total:     3.9769


*** tstop() called on ds1 at Tue Sep 14 17:23:19 2021
Module time:
	user time   =      16.86 seconds =       0.28 minutes
	system time =       0.36 seconds =       0.01 minutes
	total time  =          3 seconds =       0.05 minutes
Total time:
	user time   =      56.57 seconds =       0.94 minutes
	system time =       1.28 seconds =       0.02 minutes
	total time  =         12 seconds =       0.20 minutes
  Constructing Basis Sets for SAPT...

   => Loading Basis Set <=

    Name: (AUG-CC-PVDZ AUX)
    Role: RIFIT
    Keyword: DF_BASIS_SAPT
    atoms 1-2, 10-11 entry N          line   158 file /theoryfs2/ds/csargent/miniconda3/envs/cle/share/psi4/basis/aug-cc-pvdz-ri.gbs
    atoms 3-6, 12-15 entry H          line    30 file /theoryfs2/ds/csargent/miniconda3/envs/cle/share/psi4/basis/aug-cc-pvdz-ri.gbs
    atoms 7-9, 16-18 entry C          line   112 file /theoryfs2/ds/csargent/miniconda3/envs/cle/share/psi4/basis/aug-cc-pvdz-ri.gbs


  //>>>>>>>>>>>>>>>>>>>>>>>>>>>>>>>>>>>//
  //               SAPT0               //
  //<<<<<<<<<<<<<<<<<<<<<<<<<<<<<<<<<<<//


*** tstart() called on ds1
*** at Tue Sep 14 17:23:20 2021

        SAPT0
    Ed Hohenstein
     6 June 2009

      Orbital Information
  --------------------------
    NSO        =       302
    NMO        =       302
    NRI        =       904
    NOCC A     =        18
    NOCC B     =        18
    FOCC A     =         5
    FOCC B     =         5
    NVIR A     =       284
    NVIR B     =       284

    Elst10,r            =     0.000058409829 [Eh]
    Exch10              =    -0.000000000000 [Eh]
    Exch10 (S^2)        =    -0.000000000000 [Eh]

    Iter     Energy [mEh]          dE [mEh]         Residual      Time [s]
       1      -0.00004556       0.000045558       0.072621289             1
       2      -0.00004246      -0.000003099       0.019751078             1
       3      -0.00004704       0.000004578       0.007375239             1
       4      -0.00004766       0.000000620       0.002599214             1
       5      -0.00004755      -0.000000102       0.001281008             1
       6      -0.00004748      -0.000000076       0.000422765             1
       7      -0.00004749       0.000000013       0.000164412             1
       8      -0.00004750       0.000000008       0.000053441             2
       9      -0.00004750      -0.000000001       0.000018959             2
      10      -0.00004750      -0.000000001       0.000003983             2
      11      -0.00004750       0.000000000       0.000001593             2
      12      -0.00004750       0.000000000       0.000000490             2

    CHF Iterations converged


    Iter     Energy [mEh]          dE [mEh]         Residual      Time [s]
       1      -0.00006723       0.000067226       0.086059415             0
       2      -0.00006331      -0.000003916       0.023180248             0
       3      -0.00007030       0.000006994       0.009108435             0
       4      -0.00007114       0.000000839       0.003248798             1
       5      -0.00007096      -0.000000182       0.001701717             1
       6      -0.00007085      -0.000000111       0.000512821             1
       7      -0.00007087       0.000000024       0.000174219             1
       8      -0.00007088       0.000000010       0.000064861             1
       9      -0.00007088      -0.000000001       0.000022363             1
      10      -0.00007088      -0.000000002       0.000005161             1
      11      -0.00007088       0.000000000       0.000002179             1
      12      -0.00007088       0.000000000       0.000000762             2

    CHF Iterations converged

    Ind20,r (A<-B)      =    -0.000000047497 [Eh]
    Ind20,r (B<-A)      =    -0.000000070881 [Eh]
    Ind20,r             =    -0.000000118379 [Eh]
    Exch-Ind20,r (A<-B) =     0.000000000000 [Eh]
    Exch-Ind20,r (B<-A) =     0.000000000000 [Eh]
    Exch-Ind20,r        =     0.000000000000 [Eh]
    Disp20              =    -0.000000763350 [Eh]
    Disp20 (SS)         =    -0.000000381675 [Eh]
    Disp20 (OS)         =    -0.000000381675 [Eh]
    Exch-Disp20         =     0.000000000000 [Eh]
    Exch-Disp20 (SS)    =     0.000000000000 [Eh]
    Exch-Disp20 (OS)    =     0.000000000000 [Eh]

    SAPT Results
  --------------------------------------------------------------------------------------------------------
    Electrostatics                  0.05840983 [mEh]       0.03665272 [kcal/mol]       0.15335498 [kJ/mol]
      Elst10,r                      0.05840983 [mEh]       0.03665272 [kcal/mol]       0.15335498 [kJ/mol]

    Exchange                       -0.00000000 [mEh]      -0.00000000 [kcal/mol]      -0.00000000 [kJ/mol]
      Exch10                       -0.00000000 [mEh]      -0.00000000 [kcal/mol]      -0.00000000 [kJ/mol]
      Exch10(S^2)                  -0.00000000 [mEh]      -0.00000000 [kcal/mol]      -0.00000000 [kJ/mol]

    Induction                      -0.00011323 [mEh]      -0.00007105 [kcal/mol]      -0.00029728 [kJ/mol]
      Ind20,r                      -0.00011838 [mEh]      -0.00007428 [kcal/mol]      -0.00031080 [kJ/mol]
      Exch-Ind20,r                  0.00000000 [mEh]       0.00000000 [kcal/mol]       0.00000000 [kJ/mol]
      delta HF,r (2)                0.00000515 [mEh]       0.00000323 [kcal/mol]       0.00001352 [kJ/mol]

    Dispersion                     -0.00076335 [mEh]      -0.00047901 [kcal/mol]      -0.00200417 [kJ/mol]
      Disp20                       -0.00076335 [mEh]      -0.00047901 [kcal/mol]      -0.00200417 [kJ/mol]
      Exch-Disp20                   0.00000000 [mEh]       0.00000000 [kcal/mol]       0.00000000 [kJ/mol]
      Disp20 (SS)                  -0.00038167 [mEh]      -0.00023950 [kcal/mol]      -0.00100209 [kJ/mol]
      Disp20 (OS)                  -0.00038167 [mEh]      -0.00023950 [kcal/mol]      -0.00100209 [kJ/mol]
      Exch-Disp20 (SS)              0.00000000 [mEh]       0.00000000 [kcal/mol]       0.00000000 [kJ/mol]
      Exch-Disp20 (OS)              0.00000000 [mEh]       0.00000000 [kcal/mol]       0.00000000 [kJ/mol]

  Total HF                          0.05829660 [mEh]       0.03658167 [kcal/mol]       0.15305770 [kJ/mol]
  Total SAPT0                       0.05753325 [mEh]       0.03610266 [kcal/mol]       0.15105353 [kJ/mol]

  Special recipe for scaled SAPT0 (see Manual):
    Electrostatics sSAPT0           0.05840983 [mEh]       0.03665272 [kcal/mol]       0.15335498 [kJ/mol]
    Exchange sSAPT0                -0.00000000 [mEh]      -0.00000000 [kcal/mol]      -0.00000000 [kJ/mol]
    Induction sSAPT0               -0.00011323 [mEh]      -0.00007105 [kcal/mol]      -0.00029728 [kJ/mol]
    Dispersion sSAPT0              -0.00076335 [mEh]      -0.00047901 [kcal/mol]      -0.00200417 [kJ/mol]
  Total sSAPT0                      0.05753325 [mEh]       0.03610266 [kcal/mol]       0.15105353 [kJ/mol]
  --------------------------------------------------------------------------------------------------------

*** tstop() called on ds1 at Tue Sep 14 17:23:29 2021
Module time:
	user time   =      45.29 seconds =       0.75 minutes
	system time =       3.94 seconds =       0.07 minutes
	total time  =          9 seconds =       0.15 minutes
Total time:
	user time   =     102.90 seconds =       1.71 minutes
	system time =       5.27 seconds =       0.09 minutes
	total time  =         22 seconds =       0.37 minutes


Warning! sapt0 does not have an associated derived wavefunction.The returned wavefunction is the dimer SCF wavefunction.


    Psi4 stopped on: Tuesday, 14 September 2021 05:23PM
    Psi4 wall time for execution: 0:00:22.12

*** Psi4 exiting successfully. Buy a developer a beer!
