
    -----------------------------------------------------------------------
          Psi4: An Open-Source Ab Initio Electronic Structure Package
                               Psi4 1.4rc3

                         Git: Rev {HEAD} 080dba6


    D. G. A. Smith, L. A. Burns, A. C. Simmonett, R. M. Parrish,
    M. C. Schieber, R. Galvelis, P. Kraus, H. Kruse, R. Di Remigio,
    A. Alenaizan, A. M. James, S. Lehtola, J. P. Misiewicz, M. Scheurer,
    R. A. Shaw, J. B. Schriber, Y. Xie, Z. L. Glick, D. A. Sirianni,
    J. S. O'Brien, J. M. Waldrop, A. Kumar, E. G. Hohenstein,
    B. P. Pritchard, B. R. Brooks, H. F. Schaefer III, A. Yu. Sokolov,
    K. Patkowski, A. E. DePrince III, U. Bozkaya, R. A. King,
    F. A. Evangelista, J. M. Turney, T. D. Crawford, C. D. Sherrill,
    J. Chem. Phys. 152(18) 184108 (2020). https://doi.org/10.1063/5.0006002

                            Additional Code Authors
    E. T. Seidl, C. L. Janssen, E. F. Valeev, M. L. Leininger,
    J. F. Gonthier, R. M. Richard, H. R. McAlexander, M. Saitow, X. Wang,
    P. Verma, and M. H. Lechner

             Previous Authors, Complete List of Code Contributors,
                       and Citations for Specific Modules
    https://github.com/psi4/psi4/blob/master/codemeta.json
    https://github.com/psi4/psi4/graphs/contributors
    http://psicode.org/psi4manual/master/introduction.html#citing-psifour

    -----------------------------------------------------------------------


    Psi4 started on: Tuesday, 14 September 2021 04:34PM

    Process ID: 420
    Host:       ds1
    PSIDATADIR: /theoryfs2/ds/csargent/miniconda3/envs/cle/share/psi4
    Memory:     500.0 MiB
    Threads:    6

  ==> Input File <==

--------------------------------------------------------------------------
# PSI4 file produced by CrystaLattE

# Generated from:               imidazole.xyz
# Psithon input for N-mer:      2mer-0+1
# Number of atoms per monomer:  [9, 9]
# Number of replicas:           2
# COM priority:                 1.089702253783e-03
# Minimum COM separations:      5.142
# Separation priority:          2.520049290485e-02
# Minimum monomer separations:  1.805
# Cutoff priority:              7.388314612800e-03
# Nuclear repulsion energy:     465.77977069823845

memory 7 GB

molecule Dimer_0_1 {
  N           -4.29309621      -3.06837431       5.30516231
  N           -2.15847371      -2.92627296       1.72037448
  H           -0.02545587      -6.35903575       2.22046452
  H           -2.68566968      -6.53260241       6.61445954
  H           -4.74388423      -0.00609006       2.75615968
  H           -1.41045540      -2.24723147       0.00000000
  C           -1.43737991      -5.07504848       2.94065891
  C           -2.76900782      -5.14609916       5.13522880
  C           -3.85955036      -1.77728198       3.21093411
--
  N            0.18908973      -1.10331554      -2.78690955
  N            2.32371223      -1.24541690      -6.37169738
  H            4.45673008       2.18734590      -5.87160734
  H            1.79651626       2.36091255      -1.47761232
  H           -0.26169828      -4.16559979      -5.33591219
  H            3.07173054      -1.92445838      -8.09207186
  C            3.04480603       0.90335863      -5.15141295
  C            1.71317812       0.97440931      -2.95684306
  C            0.62263559      -2.39440787      -4.88113775
units = au
no_com
no_reorient
}

set {
  e_convergence 10
  d_convergence 10
  scf_type df
  mp2_type df
  cc_type df
  freeze_core true
}

energy('sapt0/aug-cc-pvdz')

--------------------------------------------------------------------------

  Memory set to   6.519 GiB by Python driver.

Scratch directory: /scratch/csargent/psi4.31446.79897/

Scratch directory: /scratch/csargent/psi4.31446.79897/

  //>>>>>>>>>>>>>>>>>>>>>>>>>>>>>>>>>>>//
  //              Dimer HF             //
  //<<<<<<<<<<<<<<<<<<<<<<<<<<<<<<<<<<<//


*** tstart() called on ds1
*** at Tue Sep 14 16:34:23 2021

   => Loading Basis Set <=

    Name: AUG-CC-PVDZ
    Role: ORBITAL
    Keyword: BASIS
    atoms 1-2, 10-11 entry N          line   218 file /theoryfs2/ds/csargent/miniconda3/envs/cle/share/psi4/basis/aug-cc-pvdz.gbs
    atoms 3-6, 12-15 entry H          line    40 file /theoryfs2/ds/csargent/miniconda3/envs/cle/share/psi4/basis/aug-cc-pvdz.gbs
    atoms 7-9, 16-18 entry C          line   182 file /theoryfs2/ds/csargent/miniconda3/envs/cle/share/psi4/basis/aug-cc-pvdz.gbs


         ---------------------------------------------------------
                                   SCF
               by Justin Turney, Rob Parrish, Andy Simmonett
                          and Daniel G. A. Smith
                              RHF Reference
                        6 Threads,   6675 MiB Core
         ---------------------------------------------------------

  ==> Geometry <==

    Molecular point group: c1
    Full point group: C1

    Geometry (in Bohr), charge = 0, multiplicity = 1:

       Center              X                  Y                   Z               Mass
    ------------   -----------------  -----------------  -----------------  -----------------
         N           -4.293096210000    -3.068374310000     5.305162310000    14.003074004430
         N           -2.158473710000    -2.926272960000     1.720374480000    14.003074004430
         H           -0.025455870000    -6.359035750000     2.220464520000     1.007825032230
         H           -2.685669680000    -6.532602410000     6.614459540000     1.007825032230
         H           -4.743884230000    -0.006090060000     2.756159680000     1.007825032230
         H           -1.410455400000    -2.247231470000     0.000000000000     1.007825032230
         C           -1.437379910000    -5.075048480000     2.940658910000    12.000000000000
         C           -2.769007820000    -5.146099160000     5.135228800000    12.000000000000
         C           -3.859550360000    -1.777281980000     3.210934110000    12.000000000000
         N            0.189089730000    -1.103315540000    -2.786909550000    14.003074004430
         N            2.323712230000    -1.245416900000    -6.371697380000    14.003074004430
         H            4.456730080000     2.187345900000    -5.871607340000     1.007825032230
         H            1.796516260000     2.360912550000    -1.477612320000     1.007825032230
         H           -0.261698280000    -4.165599790000    -5.335912190000     1.007825032230
         H            3.071730540000    -1.924458380000    -8.092071860000     1.007825032230
         C            3.044806030000     0.903358630000    -5.151412950000    12.000000000000
         C            1.713178120000     0.974409310000    -2.956843060000    12.000000000000
         C            0.622635590000    -2.394407870000    -4.881137750000    12.000000000000

  Running in c1 symmetry.

  Rotational constants: A =      0.06038  B =      0.01606  C =      0.01333 [cm^-1]
  Rotational constants: A =   1810.25468  B =    481.56802  C =    399.49470 [MHz]
  Nuclear repulsion =  465.779770862221994

  Charge       = 0
  Multiplicity = 1
  Electrons    = 72
  Nalpha       = 36
  Nbeta        = 36

  ==> Algorithm <==

  SCF Algorithm Type is DF.
  DIIS enabled.
  MOM disabled.
  Fractional occupation disabled.
  Guess Type is SAD.
  Energy threshold   = 1.00e-10
  Density threshold  = 1.00e-10
  Integral threshold = 1.00e-12

  ==> Primary Basis <==

  Basis Set: AUG-CC-PVDZ
    Blend: AUG-CC-PVDZ
    Number of shells: 130
    Number of basis functions: 302
    Number of Cartesian functions: 322
    Spherical Harmonics?: true
    Max angular momentum: 2

   => Loading Basis Set <=

    Name: (AUG-CC-PVDZ AUX)
    Role: JKFIT
    Keyword: DF_BASIS_SCF
    atoms 1-2, 10-11 entry N          line   212 file /theoryfs2/ds/csargent/miniconda3/envs/cle/share/psi4/basis/aug-cc-pvdz-jkfit.gbs
    atoms 3-6, 12-15 entry H          line    70 file /theoryfs2/ds/csargent/miniconda3/envs/cle/share/psi4/basis/aug-cc-pvdz-jkfit.gbs
    atoms 7-9, 16-18 entry C          line   154 file /theoryfs2/ds/csargent/miniconda3/envs/cle/share/psi4/basis/aug-cc-pvdz-jkfit.gbs

  ==> Integral Setup <==

  ==> DiskDFJK: Density-Fitted J/K Matrices <==

    J tasked:                  Yes
    K tasked:                  Yes
    wK tasked:                  No
    OpenMP threads:              6
    Integrals threads:           6
    Memory [MiB]:             5006
    Algorithm:                Core
    Integral Cache:           SAVE
    Schwarz Cutoff:          1E-12
    Fitting Condition:       1E-10

   => Auxiliary Basis Set <=

  Basis Set: (AUG-CC-PVDZ AUX)
    Blend: AUG-CC-PVDZ-JKFIT
    Number of shells: 376
    Number of basis functions: 1116
    Number of Cartesian functions: 1290
    Spherical Harmonics?: true
    Max angular momentum: 3

  Minimum eigenvalue in the overlap matrix is 1.1745698443E-05.
  Reciprocal condition number of the overlap matrix is 8.6002512285E-07.
    Using symmetric orthogonalization.

  ==> Pre-Iterations <==

  SCF Guess: Superposition of Atomic Densities via on-the-fly atomic UHF (no occupation information).

   -------------------------
    Irrep   Nso     Nmo
   -------------------------
     A        302     302
   -------------------------
    Total     302     302
   -------------------------

  ==> Iterations <==

                           Total Energy        Delta E     RMS |[F,P]|

   @DF-RHF iter SAD:  -449.28005389415250   -4.49280e+02   0.00000e+00
   @DF-RHF iter   1:  -449.43314689448567   -1.53093e-01   2.20246e-03 DIIS
   @DF-RHF iter   2:  -449.63853741924743   -2.05391e-01   1.15965e-03 DIIS
   @DF-RHF iter   3:  -449.69509810935557   -5.65607e-02   2.26249e-04 DIIS
   @DF-RHF iter   4:  -449.69811905695070   -3.02095e-03   9.87908e-05 DIIS
   @DF-RHF iter   5:  -449.69857460085683   -4.55544e-04   1.77103e-05 DIIS
   @DF-RHF iter   6:  -449.69860678669045   -3.21858e-05   7.38692e-06 DIIS
   @DF-RHF iter   7:  -449.69861241054519   -5.62385e-06   2.91645e-06 DIIS
   @DF-RHF iter   8:  -449.69861363931852   -1.22877e-06   1.07386e-06 DIIS
   @DF-RHF iter   9:  -449.69861383917402   -1.99855e-07   4.02090e-07 DIIS
   @DF-RHF iter  10:  -449.69861385618464   -1.70106e-08   1.64697e-07 DIIS
   @DF-RHF iter  11:  -449.69861386022950   -4.04486e-09   4.68886e-08 DIIS
   @DF-RHF iter  12:  -449.69861386063025   -4.00746e-10   2.52884e-08 DIIS
   @DF-RHF iter  13:  -449.69861386069283   -6.25846e-11   7.06734e-09 DIIS
   @DF-RHF iter  14:  -449.69861386070039   -7.56017e-12   2.35498e-09 DIIS
   @DF-RHF iter  15:  -449.69861386070329   -2.89901e-12   1.13772e-09 DIIS
   @DF-RHF iter  16:  -449.69861386070301    2.84217e-13   3.86370e-10 DIIS
   @DF-RHF iter  17:  -449.69861386070193    1.08002e-12   1.57988e-10 DIIS
   @DF-RHF iter  18:  -449.69861386070301   -1.08002e-12   4.17251e-11 DIIS
  Energy and wave function converged.


  ==> Post-Iterations <==

    Orbital Energies [Eh]
    ---------------------

    Doubly Occupied:

       1A    -15.664692     2A    -15.587093     3A    -15.585752
       4A    -15.522412     5A    -11.333416     6A    -11.289172
       7A    -11.273607     8A    -11.269068     9A    -11.233865
      10A    -11.218387    11A     -1.382896    12A     -1.318223
      13A     -1.202852    14A     -1.135632    15A     -1.040499
      16A     -0.982168    17A     -0.856282    18A     -0.833735
      19A     -0.795637    20A     -0.784175    21A     -0.772309
      22A     -0.731520    23A     -0.639469    24A     -0.633040
      25A     -0.628831    26A     -0.600754    27A     -0.583044
      28A     -0.572630    29A     -0.569395    30A     -0.544125
      31A     -0.473394    32A     -0.435213    33A     -0.407059
      34A     -0.366956    35A     -0.348094    36A     -0.292876

    Virtual:

      37A      0.013767    38A      0.032205    39A      0.039941
      40A      0.049716    41A      0.056052    42A      0.060760
      43A      0.067952    44A      0.083121    45A      0.090595
      46A      0.103200    47A      0.106079    48A      0.112949
      49A      0.118579    50A      0.126642    51A      0.128103
      52A      0.135222    53A      0.142193    54A      0.143183
      55A      0.148922    56A      0.151640    57A      0.156017
      58A      0.158772    59A      0.169835    60A      0.172367
      61A      0.175141    62A      0.179646    63A      0.184361
      64A      0.187902    65A      0.195984    66A      0.207871
      67A      0.210968    68A      0.222029    69A      0.226587
      70A      0.237130    71A      0.240011    72A      0.249374
      73A      0.256550    74A      0.263977    75A      0.271340
      76A      0.276650    77A      0.278035    78A      0.282968
      79A      0.295787    80A      0.303295    81A      0.311183
      82A      0.313844    83A      0.334165    84A      0.339205
      85A      0.354414    86A      0.358331    87A      0.361890
      88A      0.362889    89A      0.370988    90A      0.374566
      91A      0.378404    92A      0.386122    93A      0.396990
      94A      0.405873    95A      0.414820    96A      0.416391
      97A      0.426994    98A      0.432353    99A      0.437470
     100A      0.446830   101A      0.453273   102A      0.456281
     103A      0.468233   104A      0.470655   105A      0.476743
     106A      0.478765   107A      0.491736   108A      0.498314
     109A      0.511793   110A      0.519922   111A      0.529981
     112A      0.542214   113A      0.542366   114A      0.556561
     115A      0.570320   116A      0.579198   117A      0.591792
     118A      0.595544   119A      0.599787   120A      0.607146
     121A      0.620925   122A      0.624764   123A      0.631244
     124A      0.638304   125A      0.650251   126A      0.651325
     127A      0.656620   128A      0.661287   129A      0.665904
     130A      0.668170   131A      0.684233   132A      0.691326
     133A      0.696299   134A      0.701065   135A      0.703143
     136A      0.708617   137A      0.715102   138A      0.729856
     139A      0.741557   140A      0.745505   141A      0.751237
     142A      0.758944   143A      0.772999   144A      0.787373
     145A      0.788382   146A      0.797838   147A      0.802380
     148A      0.811624   149A      0.822359   150A      0.838292
     151A      0.845945   152A      0.861286   153A      0.870887
     154A      0.874551   155A      0.887316   156A      0.896089
     157A      0.911911   158A      0.917373   159A      0.930452
     160A      0.938972   161A      0.943156   162A      0.947144
     163A      0.976978   164A      0.988657   165A      1.003124
     166A      1.011111   167A      1.022610   168A      1.032944
     169A      1.039336   170A      1.043375   171A      1.065137
     172A      1.075938   173A      1.076926   174A      1.096949
     175A      1.105420   176A      1.123236   177A      1.130961
     178A      1.142805   179A      1.150237   180A      1.161953
     181A      1.178285   182A      1.187924   183A      1.192441
     184A      1.208857   185A      1.239509   186A      1.245780
     187A      1.263841   188A      1.285905   189A      1.295171
     190A      1.318042   191A      1.329650   192A      1.348318
     193A      1.410348   194A      1.422615   195A      1.456914
     196A      1.471367   197A      1.496384   198A      1.524802
     199A      1.552038   200A      1.562040   201A      1.574221
     202A      1.579311   203A      1.604432   204A      1.608328
     205A      1.609526   206A      1.624657   207A      1.634415
     208A      1.668684   209A      1.677434   210A      1.678729
     211A      1.708744   212A      1.713657   213A      1.728671
     214A      1.746298   215A      1.757792   216A      1.766587
     217A      1.784358   218A      1.796572   219A      1.808185
     220A      1.826824   221A      1.837454   222A      1.861512
     223A      1.880582   224A      1.896232   225A      1.907956
     226A      1.930200   227A      1.953877   228A      1.984194
     229A      2.009300   230A      2.011480   231A      2.045027
     232A      2.051345   233A      2.084157   234A      2.086418
     235A      2.102705   236A      2.122441   237A      2.125895
     238A      2.133388   239A      2.144085   240A      2.148103
     241A      2.155395   242A      2.184030   243A      2.188980
     244A      2.206133   245A      2.226419   246A      2.262622
     247A      2.283565   248A      2.313564   249A      2.320917
     250A      2.336289   251A      2.354244   252A      2.390385
     253A      2.412067   254A      2.442395   255A      2.502973
     256A      2.512969   257A      2.535125   258A      2.546424
     259A      2.571487   260A      2.580433   261A      2.585372
     262A      2.597430   263A      2.659205   264A      2.668345
     265A      2.699410   266A      2.724906   267A      2.745085
     268A      2.765690   269A      2.777865   270A      2.781334
     271A      2.791875   272A      2.817606   273A      2.827586
     274A      2.849731   275A      2.864516   276A      2.874897
     277A      2.895727   278A      2.935731   279A      2.963420
     280A      2.974076   281A      3.003252   282A      3.008099
     283A      3.039028   284A      3.048349   285A      3.088153
     286A      3.092681   287A      3.151144   288A      3.172005
     289A      3.201593   290A      3.244328   291A      3.313802
     292A      3.323972   293A      3.339642   294A      3.374303
     295A      3.393325   296A      3.414495   297A      3.523310
     298A      3.564867   299A      3.812869   300A      3.850593
     301A      4.098041   302A      4.227324

    Final Occupation by Irrep:
              A
    DOCC [    36 ]

  @DF-RHF Final Energy:  -449.69861386070301

   => Energetics <=

    Nuclear Repulsion Energy =            465.7797708622219943
    One-Electron Energy =               -1533.1402244647415500
    Two-Electron Energy =                 617.6618397418166069
    Total Energy =                       -449.6986138607029488

Computation Completed


Properties will be evaluated at   0.000000,   0.000000,   0.000000 [a0]

Properties computed using the SCF density matrix

  Nuclear Dipole Moment: [e a0]
     X:   -43.4855      Y:  -150.1808      Z:   -34.3330

  Electronic Dipole Moment: [e a0]
     X:    45.4606      Y:   150.4476      Z:    30.9793

  Dipole Moment: [e a0]
     X:     1.9752      Y:     0.2668      Z:    -3.3538     Total:     3.9013

  Dipole Moment: [D]
     X:     5.0204      Y:     0.6781      Z:    -8.5244     Total:     9.9161


*** tstop() called on ds1 at Tue Sep 14 16:34:30 2021
Module time:
	user time   =      34.48 seconds =       0.57 minutes
	system time =       0.76 seconds =       0.01 minutes
	total time  =          7 seconds =       0.12 minutes
Total time:
	user time   =      34.48 seconds =       0.57 minutes
	system time =       0.76 seconds =       0.01 minutes
	total time  =          7 seconds =       0.12 minutes

  //>>>>>>>>>>>>>>>>>>>>>>>>>>>>>>>>>>>//
  //            Monomer A HF           //
  //<<<<<<<<<<<<<<<<<<<<<<<<<<<<<<<<<<<//


*** tstart() called on ds1
*** at Tue Sep 14 16:34:30 2021

   => Loading Basis Set <=

    Name: AUG-CC-PVDZ
    Role: ORBITAL
    Keyword: BASIS
    atoms 1-2, 10-11 entry N          line   218 file /theoryfs2/ds/csargent/miniconda3/envs/cle/share/psi4/basis/aug-cc-pvdz.gbs
    atoms 3-6, 12-15 entry H          line    40 file /theoryfs2/ds/csargent/miniconda3/envs/cle/share/psi4/basis/aug-cc-pvdz.gbs
    atoms 7-9, 16-18 entry C          line   182 file /theoryfs2/ds/csargent/miniconda3/envs/cle/share/psi4/basis/aug-cc-pvdz.gbs


         ---------------------------------------------------------
                                   SCF
               by Justin Turney, Rob Parrish, Andy Simmonett
                          and Daniel G. A. Smith
                              RHF Reference
                        6 Threads,   6675 MiB Core
         ---------------------------------------------------------

  ==> Geometry <==

    Molecular point group: c1
    Full point group: C1

    Geometry (in Bohr), charge = 0, multiplicity = 1:

       Center              X                  Y                   Z               Mass
    ------------   -----------------  -----------------  -----------------  -----------------
         N           -4.293096210000    -3.068374310000     5.305162310000    14.003074004430
         N           -2.158473710000    -2.926272960000     1.720374480000    14.003074004430
         H           -0.025455870000    -6.359035750000     2.220464520000     1.007825032230
         H           -2.685669680000    -6.532602410000     6.614459540000     1.007825032230
         H           -4.743884230000    -0.006090060000     2.756159680000     1.007825032230
         H           -1.410455400000    -2.247231470000     0.000000000000     1.007825032230
         C           -1.437379910000    -5.075048480000     2.940658910000    12.000000000000
         C           -2.769007820000    -5.146099160000     5.135228800000    12.000000000000
         C           -3.859550360000    -1.777281980000     3.210934110000    12.000000000000
      Gh(N)           0.189089730000    -1.103315540000    -2.786909550000    14.003074004430
      Gh(N)           2.323712230000    -1.245416900000    -6.371697380000    14.003074004430
      Gh(H)           4.456730080000     2.187345900000    -5.871607340000     1.007825032230
      Gh(H)           1.796516260000     2.360912550000    -1.477612320000     1.007825032230
      Gh(H)          -0.261698280000    -4.165599790000    -5.335912190000     1.007825032230
      Gh(H)           3.071730540000    -1.924458380000    -8.092071860000     1.007825032230
      Gh(C)           3.044806030000     0.903358630000    -5.151412950000    12.000000000000
      Gh(C)           1.713178120000     0.974409310000    -2.956843060000    12.000000000000
      Gh(C)           0.622635590000    -2.394407870000    -4.881137750000    12.000000000000

  Running in c1 symmetry.

  Rotational constants: A =      0.06038  B =      0.01606  C =      0.01333 [cm^-1]
  Rotational constants: A =   1810.25468  B =    481.56802  C =    399.49470 [MHz]
  Nuclear repulsion =  164.086695994184396

  Charge       = 0
  Multiplicity = 1
  Electrons    = 36
  Nalpha       = 18
  Nbeta        = 18

  ==> Algorithm <==

  SCF Algorithm Type is DF.
  DIIS enabled.
  MOM disabled.
  Fractional occupation disabled.
  Guess Type is SAD.
  Energy threshold   = 1.00e-10
  Density threshold  = 1.00e-10
  Integral threshold = 1.00e-12

  ==> Primary Basis <==

  Basis Set: AUG-CC-PVDZ
    Blend: AUG-CC-PVDZ
    Number of shells: 130
    Number of basis functions: 302
    Number of Cartesian functions: 322
    Spherical Harmonics?: true
    Max angular momentum: 2

   => Loading Basis Set <=

    Name: (AUG-CC-PVDZ AUX)
    Role: JKFIT
    Keyword: DF_BASIS_SCF
    atoms 1-2, 10-11 entry N          line   212 file /theoryfs2/ds/csargent/miniconda3/envs/cle/share/psi4/basis/aug-cc-pvdz-jkfit.gbs
    atoms 3-6, 12-15 entry H          line    70 file /theoryfs2/ds/csargent/miniconda3/envs/cle/share/psi4/basis/aug-cc-pvdz-jkfit.gbs
    atoms 7-9, 16-18 entry C          line   154 file /theoryfs2/ds/csargent/miniconda3/envs/cle/share/psi4/basis/aug-cc-pvdz-jkfit.gbs

  ==> Integral Setup <==

  ==> DiskDFJK: Density-Fitted J/K Matrices <==

    J tasked:                  Yes
    K tasked:                  Yes
    wK tasked:                  No
    OpenMP threads:              6
    Integrals threads:           6
    Memory [MiB]:             5006
    Algorithm:                Core
    Integral Cache:           LOAD
    Schwarz Cutoff:          1E-12
    Fitting Condition:       1E-10

   => Auxiliary Basis Set <=

  Basis Set: (AUG-CC-PVDZ AUX)
    Blend: AUG-CC-PVDZ-JKFIT
    Number of shells: 376
    Number of basis functions: 1116
    Number of Cartesian functions: 1290
    Spherical Harmonics?: true
    Max angular momentum: 3

  Minimum eigenvalue in the overlap matrix is 1.1745698443E-05.
  Reciprocal condition number of the overlap matrix is 8.6002512285E-07.
    Using symmetric orthogonalization.

  ==> Pre-Iterations <==

  SCF Guess: Superposition of Atomic Densities via on-the-fly atomic UHF (no occupation information).

   -------------------------
    Irrep   Nso     Nmo
   -------------------------
     A        302     302
   -------------------------
    Total     302     302
   -------------------------

  ==> Iterations <==

                           Total Energy        Delta E     RMS |[F,P]|

   @DF-RHF iter SAD:  -224.55857707981235   -2.24559e+02   0.00000e+00
   @DF-RHF iter   1:  -224.69836784904220   -1.39791e-01   1.63195e-03 DIIS
   @DF-RHF iter   2:  -224.80564257153830   -1.07275e-01   9.27761e-04 DIIS
   @DF-RHF iter   3:  -224.84201992647752   -3.63774e-02   1.74105e-04 DIIS
   @DF-RHF iter   4:  -224.84370603411875   -1.68611e-03   7.99622e-05 DIIS
   @DF-RHF iter   5:  -224.84400777517394   -3.01741e-04   1.26552e-05 DIIS
   @DF-RHF iter   6:  -224.84402511558187   -1.73404e-05   5.61879e-06 DIIS
   @DF-RHF iter   7:  -224.84402820028384   -3.08470e-06   2.19470e-06 DIIS
   @DF-RHF iter   8:  -224.84402893143059   -7.31147e-07   7.78057e-07 DIIS
   @DF-RHF iter   9:  -224.84402904233073   -1.10900e-07   1.87934e-07 DIIS
   @DF-RHF iter  10:  -224.84402904787027   -5.53953e-09   7.33252e-08 DIIS
   @DF-RHF iter  11:  -224.84402904869711   -8.26844e-10   3.26990e-08 DIIS
   @DF-RHF iter  12:  -224.84402904884865   -1.51545e-10   9.71130e-09 DIIS
   @DF-RHF iter  13:  -224.84402904886227   -1.36140e-11   3.58672e-09 DIIS
   @DF-RHF iter  14:  -224.84402904886355   -1.27898e-12   1.58213e-09 DIIS
   @DF-RHF iter  15:  -224.84402904886406   -5.11591e-13   5.28059e-10 DIIS
   @DF-RHF iter  16:  -224.84402904886417   -1.13687e-13   2.35879e-10 DIIS
   @DF-RHF iter  17:  -224.84402904886400    1.70530e-13   4.75017e-11 DIIS
  Energy and wave function converged.


  ==> Post-Iterations <==

    Orbital Energies [Eh]
    ---------------------

    Doubly Occupied:

       1A    -15.636779     2A    -15.551212     3A    -11.300737
       4A    -11.263011     5A    -11.245593     6A     -1.352828
       7A     -1.169060     8A     -1.012067     9A     -0.824378
      10A     -0.803724    11A     -0.760657    12A     -0.610086
      13A     -0.603937    14A     -0.601903    15A     -0.570927
      16A     -0.435464    17A     -0.400445    18A     -0.320666

    Virtual:

      19A      0.012628    20A      0.032818    21A      0.036645
      22A      0.042374    23A      0.052634    24A      0.059174
      25A      0.062305    26A      0.070141    27A      0.078257
      28A      0.091915    29A      0.099068    30A      0.105973
      31A      0.111241    32A      0.113779    33A      0.117374
      34A      0.123745    35A      0.133009    36A      0.135339
      37A      0.137129    38A      0.145424    39A      0.148095
      40A      0.160951    41A      0.163587    42A      0.165651
      43A      0.168756    44A      0.171243    45A      0.184398
      46A      0.191264    47A      0.195061    48A      0.197580
      49A      0.206034    50A      0.211965    51A      0.221210
      52A      0.223317    53A      0.229910    54A      0.238439
      55A      0.241041    56A      0.246596    57A      0.261196
      58A      0.271940    59A      0.273586    60A      0.286808
      61A      0.293773    62A      0.295527    63A      0.312162
      64A      0.321626    65A      0.330878    66A      0.334443
      67A      0.343277    68A      0.352369    69A      0.358805
      70A      0.366580    71A      0.376504    72A      0.382974
      73A      0.390387    74A      0.400437    75A      0.403969
      76A      0.412793    77A      0.418705    78A      0.422144
      79A      0.431653    80A      0.435189    81A      0.445432
      82A      0.453429    83A      0.459167    84A      0.466839
      85A      0.475226    86A      0.486813    87A      0.488237
      88A      0.493598    89A      0.501360    90A      0.515590
      91A      0.520294    92A      0.525843    93A      0.533193
      94A      0.538066    95A      0.546571    96A      0.552340
      97A      0.557362    98A      0.568645    99A      0.579230
     100A      0.588004   101A      0.600605   102A      0.610068
     103A      0.613040   104A      0.620597   105A      0.623167
     106A      0.626891   107A      0.629186   108A      0.646119
     109A      0.649788   110A      0.661694   111A      0.669623
     112A      0.673291   113A      0.681659   114A      0.686509
     115A      0.693638   116A      0.702811   117A      0.715162
     118A      0.724991   119A      0.737478   120A      0.752297
     121A      0.762695   122A      0.764847   123A      0.768876
     124A      0.775985   125A      0.782341   126A      0.791221
     127A      0.801340   128A      0.813191   129A      0.836972
     130A      0.844097   131A      0.847537   132A      0.858837
     133A      0.867243   134A      0.883032   135A      0.888165
     136A      0.895850   137A      0.898756   138A      0.908065
     139A      0.914965   140A      0.928844   141A      0.937259
     142A      0.950880   143A      0.970383   144A      0.987929
     145A      0.996796   146A      1.012744   147A      1.015420
     148A      1.043453   149A      1.047329   150A      1.057990
     151A      1.073195   152A      1.092944   153A      1.096998
     154A      1.107921   155A      1.112195   156A      1.120557
     157A      1.130403   158A      1.147753   159A      1.156088
     160A      1.158514   161A      1.174406   162A      1.181023
     163A      1.187806   164A      1.201672   165A      1.218198
     166A      1.236343   167A      1.255494   168A      1.272778
     169A      1.277283   170A      1.293307   171A      1.308426
     172A      1.317060   173A      1.338843   174A      1.363282
     175A      1.380635   176A      1.409641   177A      1.427017
     178A      1.431046   179A      1.483438   180A      1.491715
     181A      1.531474   182A      1.563004   183A      1.577459
     184A      1.583745   185A      1.593245   186A      1.599536
     187A      1.641008   188A      1.660162   189A      1.674620
     190A      1.701680   191A      1.719184   192A      1.730862
     193A      1.744896   194A      1.796057   195A      1.812280
     196A      1.837432   197A      1.900657   198A      1.927844
     199A      1.971827   200A      2.003715   201A      2.053885
     202A      2.060001   203A      2.081808   204A      2.090888
     205A      2.092152   206A      2.114955   207A      2.123892
     208A      2.138304   209A      2.148521   210A      2.162880
     211A      2.172359   212A      2.177244   213A      2.181104
     214A      2.235750   215A      2.260944   216A      2.266954
     217A      2.279021   218A      2.305947   219A      2.325337
     220A      2.346468   221A      2.357174   222A      2.385641
     223A      2.407818   224A      2.430703   225A      2.464374
     226A      2.483093   227A      2.485119   228A      2.501799
     229A      2.511417   230A      2.521398   231A      2.538760
     232A      2.553957   233A      2.562867   234A      2.597617
     235A      2.606575   236A      2.639903   237A      2.647417
     238A      2.706078   239A      2.729376   240A      2.750409
     241A      2.772449   242A      2.794194   243A      2.815280
     244A      2.833107   245A      2.838739   246A      2.865177
     247A      2.909091   248A      2.925144   249A      2.939108
     250A      2.960825   251A      2.969636   252A      2.993261
     253A      3.053544   254A      3.064054   255A      3.078406
     256A      3.103997   257A      3.132762   258A      3.151064
     259A      3.203146   260A      3.230916   261A      3.265157
     262A      3.289893   263A      3.327975   264A      3.350807
     265A      3.364576   266A      3.370090   267A      3.435106
     268A      3.480580   269A      3.504839   270A      3.528581
     271A      3.610723   272A      3.621548   273A      3.689930
     274A      3.715134   275A      3.760348   276A      3.794031
     277A      3.805229   278A      3.852974   279A      3.867584
     280A      3.923334   281A      4.043515   282A      4.182539
     283A      4.219284   284A      4.631305   285A      4.675253
     286A      4.722199   287A      4.759603   288A      4.920012
     289A      5.050310   290A      5.367263   291A      5.438254
     292A      5.535789   293A      5.629177   294A      5.748017
     295A      5.869952   296A      6.086555   297A      6.195906
     298A     18.244787   299A     18.587789   300A     19.322336
     301A     25.300542   302A     25.437550

    Final Occupation by Irrep:
              A
    DOCC [    18 ]

  @DF-RHF Final Energy:  -224.84402904886400

   => Energetics <=

    Nuclear Repulsion Energy =            164.0866959941843959
    One-Electron Energy =                -628.9345053459595647
    Two-Electron Energy =                 240.0037803029111387
    Total Energy =                       -224.8440290488640017

Computation Completed


Properties will be evaluated at   0.000000,   0.000000,   0.000000 [a0]

Properties computed using the SCF density matrix

  Nuclear Dipole Moment: [e a0]
     X:  -102.4221      Y:  -129.0981      Z:   128.4908

  Electronic Dipole Moment: [e a0]
     X:   103.2262      Y:   129.2618      Z:  -129.8236

  Dipole Moment: [e a0]
     X:     0.8041      Y:     0.1638      Z:    -1.3329     Total:     1.5652

  Dipole Moment: [D]
     X:     2.0438      Y:     0.4163      Z:    -3.3878     Total:     3.9784


*** tstop() called on ds1 at Tue Sep 14 16:34:35 2021
Module time:
	user time   =      23.60 seconds =       0.39 minutes
	system time =       0.39 seconds =       0.01 minutes
	total time  =          5 seconds =       0.08 minutes
Total time:
	user time   =      58.21 seconds =       0.97 minutes
	system time =       1.15 seconds =       0.02 minutes
	total time  =         12 seconds =       0.20 minutes

  //>>>>>>>>>>>>>>>>>>>>>>>>>>>>>>>>>>>//
  //            Monomer B HF           //
  //<<<<<<<<<<<<<<<<<<<<<<<<<<<<<<<<<<<//


*** tstart() called on ds1
*** at Tue Sep 14 16:34:35 2021

   => Loading Basis Set <=

    Name: AUG-CC-PVDZ
    Role: ORBITAL
    Keyword: BASIS
    atoms 1-2, 10-11 entry N          line   218 file /theoryfs2/ds/csargent/miniconda3/envs/cle/share/psi4/basis/aug-cc-pvdz.gbs
    atoms 3-6, 12-15 entry H          line    40 file /theoryfs2/ds/csargent/miniconda3/envs/cle/share/psi4/basis/aug-cc-pvdz.gbs
    atoms 7-9, 16-18 entry C          line   182 file /theoryfs2/ds/csargent/miniconda3/envs/cle/share/psi4/basis/aug-cc-pvdz.gbs


         ---------------------------------------------------------
                                   SCF
               by Justin Turney, Rob Parrish, Andy Simmonett
                          and Daniel G. A. Smith
                              RHF Reference
                        6 Threads,   6675 MiB Core
         ---------------------------------------------------------

  ==> Geometry <==

    Molecular point group: c1
    Full point group: C1

    Geometry (in Bohr), charge = 0, multiplicity = 1:

       Center              X                  Y                   Z               Mass
    ------------   -----------------  -----------------  -----------------  -----------------
      Gh(N)          -4.293096210000    -3.068374310000     5.305162310000    14.003074004430
      Gh(N)          -2.158473710000    -2.926272960000     1.720374480000    14.003074004430
      Gh(H)          -0.025455870000    -6.359035750000     2.220464520000     1.007825032230
      Gh(H)          -2.685669680000    -6.532602410000     6.614459540000     1.007825032230
      Gh(H)          -4.743884230000    -0.006090060000     2.756159680000     1.007825032230
      Gh(H)          -1.410455400000    -2.247231470000     0.000000000000     1.007825032230
      Gh(C)          -1.437379910000    -5.075048480000     2.940658910000    12.000000000000
      Gh(C)          -2.769007820000    -5.146099160000     5.135228800000    12.000000000000
      Gh(C)          -3.859550360000    -1.777281980000     3.210934110000    12.000000000000
         N            0.189089730000    -1.103315540000    -2.786909550000    14.003074004430
         N            2.323712230000    -1.245416900000    -6.371697380000    14.003074004430
         H            4.456730080000     2.187345900000    -5.871607340000     1.007825032230
         H            1.796516260000     2.360912550000    -1.477612320000     1.007825032230
         H           -0.261698280000    -4.165599790000    -5.335912190000     1.007825032230
         H            3.071730540000    -1.924458380000    -8.092071860000     1.007825032230
         C            3.044806030000     0.903358630000    -5.151412950000    12.000000000000
         C            1.713178120000     0.974409310000    -2.956843060000    12.000000000000
         C            0.622635590000    -2.394407870000    -4.881137750000    12.000000000000

  Running in c1 symmetry.

  Rotational constants: A =      0.06038  B =      0.01606  C =      0.01333 [cm^-1]
  Rotational constants: A =   1810.25468  B =    481.56802  C =    399.49470 [MHz]
  Nuclear repulsion =  164.086696015308576

  Charge       = 0
  Multiplicity = 1
  Electrons    = 36
  Nalpha       = 18
  Nbeta        = 18

  ==> Algorithm <==

  SCF Algorithm Type is DF.
  DIIS enabled.
  MOM disabled.
  Fractional occupation disabled.
  Guess Type is SAD.
  Energy threshold   = 1.00e-10
  Density threshold  = 1.00e-10
  Integral threshold = 1.00e-12

  ==> Primary Basis <==

  Basis Set: AUG-CC-PVDZ
    Blend: AUG-CC-PVDZ
    Number of shells: 130
    Number of basis functions: 302
    Number of Cartesian functions: 322
    Spherical Harmonics?: true
    Max angular momentum: 2

   => Loading Basis Set <=

    Name: (AUG-CC-PVDZ AUX)
    Role: JKFIT
    Keyword: DF_BASIS_SCF
    atoms 1-2, 10-11 entry N          line   212 file /theoryfs2/ds/csargent/miniconda3/envs/cle/share/psi4/basis/aug-cc-pvdz-jkfit.gbs
    atoms 3-6, 12-15 entry H          line    70 file /theoryfs2/ds/csargent/miniconda3/envs/cle/share/psi4/basis/aug-cc-pvdz-jkfit.gbs
    atoms 7-9, 16-18 entry C          line   154 file /theoryfs2/ds/csargent/miniconda3/envs/cle/share/psi4/basis/aug-cc-pvdz-jkfit.gbs

  ==> Integral Setup <==

  ==> DiskDFJK: Density-Fitted J/K Matrices <==

    J tasked:                  Yes
    K tasked:                  Yes
    wK tasked:                  No
    OpenMP threads:              6
    Integrals threads:           6
    Memory [MiB]:             5006
    Algorithm:                Core
    Integral Cache:           LOAD
    Schwarz Cutoff:          1E-12
    Fitting Condition:       1E-10

   => Auxiliary Basis Set <=

  Basis Set: (AUG-CC-PVDZ AUX)
    Blend: AUG-CC-PVDZ-JKFIT
    Number of shells: 376
    Number of basis functions: 1116
    Number of Cartesian functions: 1290
    Spherical Harmonics?: true
    Max angular momentum: 3

  Minimum eigenvalue in the overlap matrix is 1.1745698443E-05.
  Reciprocal condition number of the overlap matrix is 8.6002512285E-07.
    Using symmetric orthogonalization.

  ==> Pre-Iterations <==

  SCF Guess: Superposition of Atomic Densities via on-the-fly atomic UHF (no occupation information).

   -------------------------
    Irrep   Nso     Nmo
   -------------------------
     A        302     302
   -------------------------
    Total     302     302
   -------------------------

  ==> Iterations <==

                           Total Energy        Delta E     RMS |[F,P]|

   @DF-RHF iter SAD:  -224.55857982429887   -2.24559e+02   0.00000e+00
   @DF-RHF iter   1:  -224.69837857324796   -1.39799e-01   1.63253e-03 DIIS
   @DF-RHF iter   2:  -224.80566074720073   -1.07282e-01   9.28898e-04 DIIS
   @DF-RHF iter   3:  -224.84208295580837   -3.64222e-02   1.74183e-04 DIIS
   @DF-RHF iter   4:  -224.84377015562447   -1.68720e-03   7.99789e-05 DIIS
   @DF-RHF iter   5:  -224.84407228605039   -3.02130e-04   1.26716e-05 DIIS
   @DF-RHF iter   6:  -224.84408967007244   -1.73840e-05   5.61988e-06 DIIS
   @DF-RHF iter   7:  -224.84409276937291   -3.09930e-06   2.19996e-06 DIIS
   @DF-RHF iter   8:  -224.84409350260051   -7.33228e-07   7.80680e-07 DIIS
   @DF-RHF iter   9:  -224.84409361436178   -1.11761e-07   1.88672e-07 DIIS
   @DF-RHF iter  10:  -224.84409361995142   -5.58964e-09   7.35480e-08 DIIS
   @DF-RHF iter  11:  -224.84409362078378   -8.32358e-10   3.28804e-08 DIIS
   @DF-RHF iter  12:  -224.84409362093785   -1.54074e-10   9.76635e-09 DIIS
   @DF-RHF iter  13:  -224.84409362095118   -1.33298e-11   3.60986e-09 DIIS
   @DF-RHF iter  14:  -224.84409362095280   -1.62004e-12   1.59355e-09 DIIS
   @DF-RHF iter  15:  -224.84409362095317   -3.69482e-13   5.30134e-10 DIIS
   @DF-RHF iter  16:  -224.84409362095295    2.27374e-13   2.33960e-10 DIIS
   @DF-RHF iter  17:  -224.84409362095360   -6.53699e-13   4.70019e-11 DIIS
  Energy and wave function converged.


  ==> Post-Iterations <==

    Orbital Energies [Eh]
    ---------------------

    Doubly Occupied:

       1A    -15.637107     2A    -15.551304     3A    -11.300712
       4A    -11.263093     5A    -11.245485     6A     -1.352836
       7A     -1.169066     8A     -1.012064     9A     -0.824369
      10A     -0.803718    11A     -0.760651    12A     -0.610090
      13A     -0.603945    14A     -0.601908    15A     -0.570944
      16A     -0.435479    17A     -0.400430    18A     -0.320672

    Virtual:

      19A      0.024268    20A      0.033709    21A      0.041037
      22A      0.048505    23A      0.052257    24A      0.062094
      25A      0.067406    26A      0.088466    27A      0.089034
      28A      0.094332    29A      0.107422    30A      0.112902
      31A      0.119757    32A      0.125412    33A      0.130422
      34A      0.136886    35A      0.137081    36A      0.142630
      37A      0.144445    38A      0.149668    39A      0.151884
      40A      0.159133    41A      0.161822    42A      0.171546
      43A      0.175653    44A      0.177044    45A      0.184134
      46A      0.192033    47A      0.193971    48A      0.207189
      49A      0.219890    50A      0.225725    51A      0.226664
      52A      0.233710    53A      0.238080    54A      0.249375
      55A      0.254016    56A      0.258885    57A      0.272998
      58A      0.274964    59A      0.289895    60A      0.295911
      61A      0.299574    62A      0.307208    63A      0.313256
      64A      0.320993    65A      0.334489    66A      0.345739
      67A      0.355853    68A      0.369057    69A      0.376975
      70A      0.380893    71A      0.385235    72A      0.387676
      73A      0.396043    74A      0.406760    75A      0.411409
      76A      0.420808    77A      0.423342    78A      0.425971
      79A      0.434215    80A      0.447892    81A      0.463029
      82A      0.466498    83A      0.476445    84A      0.480972
      85A      0.489773    86A      0.497278    87A      0.500782
      88A      0.510828    89A      0.515190    90A      0.532184
      91A      0.537338    92A      0.543793    93A      0.555895
      94A      0.558167    95A      0.572083    96A      0.577128
      97A      0.579126    98A      0.588379    99A      0.599466
     100A      0.603875   101A      0.610131   102A      0.617891
     103A      0.632511   104A      0.635188   105A      0.642147
     106A      0.645384   107A      0.655210   108A      0.661208
     109A      0.666649   110A      0.671063   111A      0.674502
     112A      0.682074   113A      0.693676   114A      0.702689
     115A      0.712061   116A      0.715221   117A      0.721841
     118A      0.726107   119A      0.749384   120A      0.750917
     121A      0.762937   122A      0.774067   123A      0.782266
     124A      0.803172   125A      0.807558   126A      0.812496
     127A      0.823900   128A      0.842521   129A      0.853174
     130A      0.856057   131A      0.863537   132A      0.864516
     133A      0.874060   134A      0.877420   135A      0.890204
     136A      0.899541   137A      0.916596   138A      0.923586
     139A      0.935072   140A      0.950546   141A      0.967784
     142A      0.969192   143A      0.988290   144A      0.994229
     145A      1.016000   146A      1.017391   147A      1.033802
     148A      1.041406   149A      1.052659   150A      1.063374
     151A      1.074836   152A      1.084076   153A      1.105691
     154A      1.119130   155A      1.139253   156A      1.150978
     157A      1.153412   158A      1.168694   159A      1.177318
     160A      1.194328   161A      1.210543   162A      1.217609
     163A      1.226962   164A      1.242379   165A      1.245675
     166A      1.263448   167A      1.278831   168A      1.292668
     169A      1.300864   170A      1.320044   171A      1.323960
     172A      1.355743   173A      1.359458   174A      1.391673
     175A      1.405651   176A      1.425318   177A      1.451840
     178A      1.456819   179A      1.519522   180A      1.527952
     181A      1.552389   182A      1.568601   183A      1.582978
     184A      1.603311   185A      1.611497   186A      1.635279
     187A      1.650901   188A      1.678276   189A      1.706261
     190A      1.710581   191A      1.728410   192A      1.747175
     193A      1.803273   194A      1.810632   195A      1.825280
     196A      1.864126   197A      1.898691   198A      1.931207
     199A      1.957856   200A      2.029422   201A      2.053426
     202A      2.067083   203A      2.114999   204A      2.118114
     205A      2.128988   206A      2.140864   207A      2.145108
     208A      2.153706   209A      2.170318   210A      2.173636
     211A      2.179323   212A      2.196563   213A      2.207405
     214A      2.211477   215A      2.270606   216A      2.293252
     217A      2.299189   218A      2.315506   219A      2.334227
     220A      2.353017   221A      2.381668   222A      2.409136
     223A      2.417649   224A      2.452261   225A      2.484907
     226A      2.493812   227A      2.536492   228A      2.541495
     229A      2.548111   230A      2.556332   231A      2.562517
     232A      2.567809   233A      2.604960   234A      2.623316
     235A      2.631339   236A      2.636209   237A      2.691605
     238A      2.747090   239A      2.753465   240A      2.776309
     241A      2.797682   242A      2.811491   243A      2.842575
     244A      2.847051   245A      2.858328   246A      2.890886
     247A      2.934972   248A      2.965029   249A      2.972816
     250A      2.981887   251A      2.996657   252A      3.012277
     253A      3.065834   254A      3.083984   255A      3.095944
     256A      3.117265   257A      3.180868   258A      3.187134
     259A      3.209012   260A      3.229656   261A      3.232849
     262A      3.274498   263A      3.294957   264A      3.361768
     265A      3.383007   266A      3.410864   267A      3.432254
     268A      3.494819   269A      3.533432   270A      3.577743
     271A      3.630299   272A      3.664832   273A      3.715627
     274A      3.768734   275A      3.787535   276A      3.846686
     277A      3.887515   278A      3.917357   279A      3.939045
     280A      3.954330   281A      4.058317   282A      4.130343
     283A      4.285432   284A      4.676285   285A      4.723594
     286A      4.745399   287A      4.827527   288A      5.018089
     289A      5.095459   290A      5.289470   291A      5.403678
     292A      5.527841   293A      5.669069   294A      5.825541
     295A      5.919724   296A      6.237060   297A      6.298853
     298A     18.286472   299A     18.635518   300A     19.359542
     301A     25.333494   302A     25.518426

    Final Occupation by Irrep:
              A
    DOCC [    18 ]

  @DF-RHF Final Energy:  -224.84409362095360

   => Energetics <=

    Nuclear Repulsion Energy =            164.0866960153085756
    One-Electron Energy =                -628.9338318412412718
    Two-Electron Energy =                 240.0030422049790957
    Total Energy =                       -224.8440936209536005

Computation Completed


Properties will be evaluated at   0.000000,   0.000000,   0.000000 [a0]

Properties computed using the SCF density matrix

  Nuclear Dipole Moment: [e a0]
     X:    58.9366      Y:   -21.0828      Z:  -162.8238

  Electronic Dipole Moment: [e a0]
     X:   -58.1347      Y:    20.9180      Z:   161.4941

  Dipole Moment: [e a0]
     X:     0.8019      Y:    -0.1647      Z:    -1.3297     Total:     1.5615

  Dipole Moment: [D]
     X:     2.0382      Y:    -0.4187      Z:    -3.3799     Total:     3.9690


*** tstop() called on ds1 at Tue Sep 14 16:34:40 2021
Module time:
	user time   =      23.76 seconds =       0.40 minutes
	system time =       0.39 seconds =       0.01 minutes
	total time  =          5 seconds =       0.08 minutes
Total time:
	user time   =      82.13 seconds =       1.37 minutes
	system time =       1.55 seconds =       0.03 minutes
	total time  =         17 seconds =       0.28 minutes
  Constructing Basis Sets for SAPT...

   => Loading Basis Set <=

    Name: (AUG-CC-PVDZ AUX)
    Role: RIFIT
    Keyword: DF_BASIS_SAPT
    atoms 1-2, 10-11 entry N          line   158 file /theoryfs2/ds/csargent/miniconda3/envs/cle/share/psi4/basis/aug-cc-pvdz-ri.gbs
    atoms 3-6, 12-15 entry H          line    30 file /theoryfs2/ds/csargent/miniconda3/envs/cle/share/psi4/basis/aug-cc-pvdz-ri.gbs
    atoms 7-9, 16-18 entry C          line   112 file /theoryfs2/ds/csargent/miniconda3/envs/cle/share/psi4/basis/aug-cc-pvdz-ri.gbs


  //>>>>>>>>>>>>>>>>>>>>>>>>>>>>>>>>>>>//
  //               SAPT0               //
  //<<<<<<<<<<<<<<<<<<<<<<<<<<<<<<<<<<<//


*** tstart() called on ds1
*** at Tue Sep 14 16:34:40 2021

        SAPT0
    Ed Hohenstein
     6 June 2009

      Orbital Information
  --------------------------
    NSO        =       302
    NMO        =       302
    NRI        =       904
    NOCC A     =        18
    NOCC B     =        18
    FOCC A     =         5
    FOCC B     =         5
    NVIR A     =       284
    NVIR B     =       284

    Elst10,r            =    -0.028398223740 [Eh]
    Exch10              =     0.030217665045 [Eh]
    Exch10 (S^2)        =     0.029587260028 [Eh]

    Iter     Energy [mEh]          dE [mEh]         Residual      Time [s]
       1      -3.21341709       3.213417094      11.116039982             1
       2      -3.38361217       0.170195077       4.148883394             1
       3      -3.61776627       0.234154096       0.939245929             1
       4      -3.62090063       0.003134367       0.411455707             1
       5      -3.61188313      -0.009017506       0.137957690             1
       6      -3.61183444      -0.000048689       0.050007230             1
       7      -3.61246162       0.000627181       0.019278115             1
       8      -3.61258921       0.000127584       0.004900581             1
       9      -3.61249956      -0.000089642       0.001480198             2
      10      -3.61249382      -0.000005741       0.000582563             2
      11      -3.61250294       0.000009115       0.000181489             2
      12      -3.61250313       0.000000191       0.000063087             2
      13      -3.61250218      -0.000000950       0.000024530             2
      14      -3.61250232       0.000000145       0.000010699             2
      15      -3.61250240       0.000000080       0.000003202             2
      16      -3.61250238      -0.000000020       0.000000696             2

    CHF Iterations converged


    Iter     Energy [mEh]          dE [mEh]         Residual      Time [s]
       1      -8.11305718       8.113057180      20.433699566             1
       2      -9.52371303       1.410655851      10.943303712             1
       3     -10.51854186       0.994828829       2.210217266             1
       4     -10.47987596      -0.038665904       1.023106835             1
       5     -10.45509060      -0.024785354       0.376700259             1
       6     -10.46081115       0.005720547       0.157139430             1
       7     -10.46321486       0.002403710       0.054257808             1
       8     -10.46296248      -0.000252378       0.015581232             1
       9     -10.46267665      -0.000285834       0.005180346             2
      10     -10.46268496       0.000008317       0.001843476             2
      11     -10.46271790       0.000032936       0.000620888             2
      12     -10.46271707      -0.000000830       0.000220413             2
      13     -10.46271272      -0.000004350       0.000063150             2
      14     -10.46271352       0.000000801       0.000023627             2
      15     -10.46271367       0.000000155       0.000007905             2
      16     -10.46271360      -0.000000078       0.000001661             2
      17     -10.46271359      -0.000000005       0.000000356             3

    CHF Iterations converged

    Ind20,r (A<-B)      =    -0.003612502383 [Eh]
    Ind20,r (B<-A)      =    -0.010462713592 [Eh]
    Ind20,r             =    -0.014075215975 [Eh]
    Exch-Ind20,r (A<-B) =     0.001815799646 [Eh]
    Exch-Ind20,r (B<-A) =     0.005486921340 [Eh]
    Exch-Ind20,r        =     0.007302720985 [Eh]
    Disp20              =    -0.009873671191 [Eh]
    Disp20 (SS)         =    -0.004936835596 [Eh]
    Disp20 (OS)         =    -0.004936835596 [Eh]
    Exch-Disp20         =     0.001828812572 [Eh]
    Exch-Disp20 (SS)    =     0.001140862484 [Eh]
    Exch-Disp20 (OS)    =     0.000687950088 [Eh]

    SAPT Results
  --------------------------------------------------------------------------------------------------------
    Electrostatics                -28.39822374 [mEh]     -17.82015444 [kcal/mol]     -74.55952616 [kJ/mol]
      Elst10,r                    -28.39822374 [mEh]     -17.82015444 [kcal/mol]     -74.55952616 [kJ/mol]

    Exchange                       30.21766504 [mEh]      18.96187109 [kcal/mol]      79.33646864 [kJ/mol]
      Exch10                       30.21766504 [mEh]      18.96187109 [kcal/mol]      79.33646864 [kJ/mol]
      Exch10(S^2)                  29.58726003 [mEh]      18.56628597 [kcal/mol]      77.68134050 [kJ/mol]

    Induction                     -12.31063219 [mEh]      -7.72503833 [kcal/mol]     -32.32156036 [kJ/mol]
      Ind20,r                     -14.07521597 [mEh]      -8.83233137 [kcal/mol]     -36.95447445 [kJ/mol]
      Exch-Ind20,r                  7.30272099 [mEh]       4.58252660 [kcal/mol]      19.17329131 [kJ/mol]
      delta HF,r (2)               -5.53813720 [mEh]      -3.47523356 [kcal/mol]     -14.54037722 [kJ/mol]

    Dispersion                     -8.04485862 [mEh]      -5.04822500 [kcal/mol]     -21.12177340 [kJ/mol]
      Disp20                       -9.87367119 [mEh]      -6.19582221 [kcal/mol]     -25.92332014 [kJ/mol]
      Exch-Disp20                   1.82881257 [mEh]       1.14759721 [kcal/mol]       4.80154675 [kJ/mol]
      Disp20 (SS)                  -4.93683560 [mEh]      -3.09791111 [kcal/mol]     -12.96166007 [kJ/mol]
      Disp20 (OS)                  -4.93683560 [mEh]      -3.09791111 [kcal/mol]     -12.96166007 [kJ/mol]
      Exch-Disp20 (SS)              1.14086248 [mEh]       0.71590202 [kcal/mol]       2.99533404 [kJ/mol]
      Exch-Disp20 (OS)              0.68795009 [mEh]       0.43169520 [kcal/mol]       1.80621271 [kJ/mol]

  Total HF                        -10.49119089 [mEh]      -6.58332167 [kcal/mol]     -27.54461787 [kJ/mol]
  Total SAPT0                     -18.53604950 [mEh]     -11.63154667 [kcal/mol]     -48.66639127 [kJ/mol]

  Special recipe for scaled SAPT0 (see Manual):
    Electrostatics sSAPT0         -28.39822374 [mEh]     -17.82015444 [kcal/mol]     -74.55952616 [kJ/mol]
    Exchange sSAPT0                30.21766504 [mEh]      18.96187109 [kcal/mol]      79.33646864 [kJ/mol]
    Induction sSAPT0              -11.83382656 [mEh]      -7.42583828 [kcal/mol]     -31.06970736 [kJ/mol]
    Dispersion sSAPT0              -7.92545270 [mEh]      -4.97329665 [kcal/mol]     -20.80827319 [kJ/mol]
  Total sSAPT0                    -17.93983796 [mEh]     -11.25741828 [kcal/mol]     -47.10103807 [kJ/mol]
  --------------------------------------------------------------------------------------------------------

*** tstop() called on ds1 at Tue Sep 14 16:34:51 2021
Module time:
	user time   =      52.77 seconds =       0.88 minutes
	system time =       4.87 seconds =       0.08 minutes
	total time  =         11 seconds =       0.18 minutes
Total time:
	user time   =     135.83 seconds =       2.26 minutes
	system time =       6.44 seconds =       0.11 minutes
	total time  =         28 seconds =       0.47 minutes


Warning! sapt0 does not have an associated derived wavefunction.The returned wavefunction is the dimer SCF wavefunction.


    Psi4 stopped on: Tuesday, 14 September 2021 04:34PM
    Psi4 wall time for execution: 0:00:27.83

*** Psi4 exiting successfully. Buy a developer a beer!
