
    -----------------------------------------------------------------------
          Psi4: An Open-Source Ab Initio Electronic Structure Package
                               Psi4 1.4rc3

                         Git: Rev {HEAD} 080dba6


    D. G. A. Smith, L. A. Burns, A. C. Simmonett, R. M. Parrish,
    M. C. Schieber, R. Galvelis, P. Kraus, H. Kruse, R. Di Remigio,
    A. Alenaizan, A. M. James, S. Lehtola, J. P. Misiewicz, M. Scheurer,
    R. A. Shaw, J. B. Schriber, Y. Xie, Z. L. Glick, D. A. Sirianni,
    J. S. O'Brien, J. M. Waldrop, A. Kumar, E. G. Hohenstein,
    B. P. Pritchard, B. R. Brooks, H. F. Schaefer III, A. Yu. Sokolov,
    K. Patkowski, A. E. DePrince III, U. Bozkaya, R. A. King,
    F. A. Evangelista, J. M. Turney, T. D. Crawford, C. D. Sherrill,
    J. Chem. Phys. 152(18) 184108 (2020). https://doi.org/10.1063/5.0006002

                            Additional Code Authors
    E. T. Seidl, C. L. Janssen, E. F. Valeev, M. L. Leininger,
    J. F. Gonthier, R. M. Richard, H. R. McAlexander, M. Saitow, X. Wang,
    P. Verma, and M. H. Lechner

             Previous Authors, Complete List of Code Contributors,
                       and Citations for Specific Modules
    https://github.com/psi4/psi4/blob/master/codemeta.json
    https://github.com/psi4/psi4/graphs/contributors
    http://psicode.org/psi4manual/master/introduction.html#citing-psifour

    -----------------------------------------------------------------------


    Psi4 started on: Tuesday, 14 September 2021 04:45PM

    Process ID: 1005
    Host:       ds1
    PSIDATADIR: /theoryfs2/ds/csargent/miniconda3/envs/cle/share/psi4
    Memory:     500.0 MiB
    Threads:    6

  ==> Input File <==

--------------------------------------------------------------------------
# PSI4 file produced by CrystaLattE

# Generated from:               imidazole.xyz
# Psithon input for N-mer:      2mer-0+62
# Number of atoms per monomer:  [9, 9]
# Number of replicas:           2
# COM priority:                 1.189238507465e-04
# Minimum COM separations:      10.761
# Separation priority:          2.199059035799e-04
# Minimum monomer separations:  8.767
# Cutoff priority:              1.327341026386e-05
# Nuclear repulsion energy:     391.48124589445075

memory 7 GB

molecule Dimer_0_62 {
  N           -4.29309621      -3.06837431       5.30516231
  N           -2.15847371      -2.92627296       1.72037448
  H           -0.02545587      -6.35903575       2.22046452
  H           -2.68566968      -6.53260241       6.61445954
  H           -4.74388423      -0.00609006       2.75615968
  H           -1.41045540      -2.24723147       0.00000000
  C           -1.43737991      -5.07504848       2.94065891
  C           -2.76900782      -5.14609916       5.13522880
  C           -3.85955036      -1.77728198       3.21093411
--
  N          -14.57589610       2.00667417     -12.78547354
  N          -16.71051860       2.14877553      -9.20068571
  H          -18.84353644      -1.28398727      -9.70077575
  H          -16.18332263      -1.45755392     -14.09477077
  H          -14.12510809       5.06895842     -10.23647090
  H          -17.45853691       2.82781701      -7.48031123
  C          -17.43161240      -0.00000000     -10.42097014
  C          -16.09998449      -0.07105068     -12.61554003
  C          -15.00944195       3.29776650     -10.69124534
units = au
no_com
no_reorient
}

set {
  e_convergence 10
  d_convergence 10
  scf_type df
  mp2_type df
  cc_type df
  freeze_core true
}

energy('sapt0/aug-cc-pvdz')

--------------------------------------------------------------------------

  Memory set to   6.519 GiB by Python driver.

Scratch directory: /scratch/csargent/psi4.31446.79897/

Scratch directory: /scratch/csargent/psi4.31446.79897/

  //>>>>>>>>>>>>>>>>>>>>>>>>>>>>>>>>>>>//
  //              Dimer HF             //
  //<<<<<<<<<<<<<<<<<<<<<<<<<<<<<<<<<<<//


*** tstart() called on ds1
*** at Tue Sep 14 16:45:26 2021

   => Loading Basis Set <=

    Name: AUG-CC-PVDZ
    Role: ORBITAL
    Keyword: BASIS
    atoms 1-2, 10-11 entry N          line   218 file /theoryfs2/ds/csargent/miniconda3/envs/cle/share/psi4/basis/aug-cc-pvdz.gbs
    atoms 3-6, 12-15 entry H          line    40 file /theoryfs2/ds/csargent/miniconda3/envs/cle/share/psi4/basis/aug-cc-pvdz.gbs
    atoms 7-9, 16-18 entry C          line   182 file /theoryfs2/ds/csargent/miniconda3/envs/cle/share/psi4/basis/aug-cc-pvdz.gbs


         ---------------------------------------------------------
                                   SCF
               by Justin Turney, Rob Parrish, Andy Simmonett
                          and Daniel G. A. Smith
                              RHF Reference
                        6 Threads,   6675 MiB Core
         ---------------------------------------------------------

  ==> Geometry <==

    Molecular point group: c1
    Full point group: C1

    Geometry (in Bohr), charge = 0, multiplicity = 1:

       Center              X                  Y                   Z               Mass
    ------------   -----------------  -----------------  -----------------  -----------------
         N           -4.293096210000    -3.068374310000     5.305162310000    14.003074004430
         N           -2.158473710000    -2.926272960000     1.720374480000    14.003074004430
         H           -0.025455870000    -6.359035750000     2.220464520000     1.007825032230
         H           -2.685669680000    -6.532602410000     6.614459540000     1.007825032230
         H           -4.743884230000    -0.006090060000     2.756159680000     1.007825032230
         H           -1.410455400000    -2.247231470000     0.000000000000     1.007825032230
         C           -1.437379910000    -5.075048480000     2.940658910000    12.000000000000
         C           -2.769007820000    -5.146099160000     5.135228800000    12.000000000000
         C           -3.859550360000    -1.777281980000     3.210934110000    12.000000000000
         N          -14.575896100000     2.006674170000   -12.785473540000    14.003074004430
         N          -16.710518600000     2.148775530000    -9.200685710000    14.003074004430
         H          -18.843536440000    -1.283987270000    -9.700775750000     1.007825032230
         H          -16.183322630000    -1.457553920000   -14.094770770000     1.007825032230
         H          -14.125108090000     5.068958420000   -10.236470900000     1.007825032230
         H          -17.458536910000     2.827817010000    -7.480311230000     1.007825032230
         C          -17.431612400000     0.000000000000   -10.420970140000    12.000000000000
         C          -16.099984490000    -0.071050680000   -12.615540030000    12.000000000000
         C          -15.009441950000     3.297766500000   -10.691245340000    12.000000000000

  Running in c1 symmetry.

  Rotational constants: A =      0.02026  B =      0.00229  C =      0.00210 [cm^-1]
  Rotational constants: A =    607.42851  B =     68.58338  C =     62.96776 [MHz]
  Nuclear repulsion =  391.481246022379935

  Charge       = 0
  Multiplicity = 1
  Electrons    = 72
  Nalpha       = 36
  Nbeta        = 36

  ==> Algorithm <==

  SCF Algorithm Type is DF.
  DIIS enabled.
  MOM disabled.
  Fractional occupation disabled.
  Guess Type is SAD.
  Energy threshold   = 1.00e-10
  Density threshold  = 1.00e-10
  Integral threshold = 1.00e-12

  ==> Primary Basis <==

  Basis Set: AUG-CC-PVDZ
    Blend: AUG-CC-PVDZ
    Number of shells: 130
    Number of basis functions: 302
    Number of Cartesian functions: 322
    Spherical Harmonics?: true
    Max angular momentum: 2

   => Loading Basis Set <=

    Name: (AUG-CC-PVDZ AUX)
    Role: JKFIT
    Keyword: DF_BASIS_SCF
    atoms 1-2, 10-11 entry N          line   212 file /theoryfs2/ds/csargent/miniconda3/envs/cle/share/psi4/basis/aug-cc-pvdz-jkfit.gbs
    atoms 3-6, 12-15 entry H          line    70 file /theoryfs2/ds/csargent/miniconda3/envs/cle/share/psi4/basis/aug-cc-pvdz-jkfit.gbs
    atoms 7-9, 16-18 entry C          line   154 file /theoryfs2/ds/csargent/miniconda3/envs/cle/share/psi4/basis/aug-cc-pvdz-jkfit.gbs

  ==> Integral Setup <==

  ==> DiskDFJK: Density-Fitted J/K Matrices <==

    J tasked:                  Yes
    K tasked:                  Yes
    wK tasked:                  No
    OpenMP threads:              6
    Integrals threads:           6
    Memory [MiB]:             5006
    Algorithm:                Core
    Integral Cache:           SAVE
    Schwarz Cutoff:          1E-12
    Fitting Condition:       1E-10

   => Auxiliary Basis Set <=

  Basis Set: (AUG-CC-PVDZ AUX)
    Blend: AUG-CC-PVDZ-JKFIT
    Number of shells: 376
    Number of basis functions: 1116
    Number of Cartesian functions: 1290
    Spherical Harmonics?: true
    Max angular momentum: 3

  Minimum eigenvalue in the overlap matrix is 2.1757518520E-05.
  Reciprocal condition number of the overlap matrix is 1.8322637319E-06.
    Using symmetric orthogonalization.

  ==> Pre-Iterations <==

  SCF Guess: Superposition of Atomic Densities via on-the-fly atomic UHF (no occupation information).

   -------------------------
    Irrep   Nso     Nmo
   -------------------------
     A        302     302
   -------------------------
    Total     302     302
   -------------------------

  ==> Iterations <==

                           Total Energy        Delta E     RMS |[F,P]|

   @DF-RHF iter SAD:  -449.11714363572440   -4.49117e+02   0.00000e+00
   @DF-RHF iter   1:  -449.39674903047330   -2.79605e-01   2.30481e-03 DIIS
   @DF-RHF iter   2:  -449.61115702871717   -2.14408e-01   1.30949e-03 DIIS
   @DF-RHF iter   3:  -449.68363939057559   -7.24824e-02   2.45419e-04 DIIS
   @DF-RHF iter   4:  -449.68699781389682   -3.35842e-03   1.12542e-04 DIIS
   @DF-RHF iter   5:  -449.68759598439328   -5.98170e-04   1.78712e-05 DIIS
   @DF-RHF iter   6:  -449.68763055193989   -3.45675e-05   7.93857e-06 DIIS
   @DF-RHF iter   7:  -449.68763671695297   -6.16501e-06   3.10523e-06 DIIS
   @DF-RHF iter   8:  -449.68763818481057   -1.46786e-06   1.10097e-06 DIIS
   @DF-RHF iter   9:  -449.68763840733027   -2.22520e-07   2.67857e-07 DIIS
   @DF-RHF iter  10:  -449.68763841845305   -1.11228e-08   1.05852e-07 DIIS
   @DF-RHF iter  11:  -449.68763842016222   -1.70917e-09   4.62656e-08 DIIS
   @DF-RHF iter  12:  -449.68763842047105   -3.08830e-10   1.38822e-08 DIIS
   @DF-RHF iter  13:  -449.68763842049850   -2.74554e-11   5.09671e-09 DIIS
   @DF-RHF iter  14:  -449.68763842050180   -3.29692e-12   2.25394e-09 DIIS
   @DF-RHF iter  15:  -449.68763842050237   -5.68434e-13   7.48453e-10 DIIS
   @DF-RHF iter  16:  -449.68763842050174    6.25278e-13   3.32285e-10 DIIS
   @DF-RHF iter  17:  -449.68763842050242   -6.82121e-13   6.92172e-11 DIIS
  Energy and wave function converged.


  ==> Post-Iterations <==

    Orbital Energies [Eh]
    ---------------------

    Doubly Occupied:

       1A    -15.638177     2A    -15.637464     3A    -15.552516
       4A    -15.551852     5A    -11.302154     6A    -11.301504
       7A    -11.264240     8A    -11.263596     9A    -11.246746
      10A    -11.246103    11A     -1.354028    12A     -1.353338
      13A     -1.170290    14A     -1.169607    15A     -1.013241
      16A     -1.012582    17A     -0.825526    18A     -0.824838
      19A     -0.804865    20A     -0.804202    21A     -0.761815
      22A     -0.761168    23A     -0.611245    24A     -0.610574
      25A     -0.605113    26A     -0.604415    27A     -0.602977
      28A     -0.602344    29A     -0.572149    30A     -0.571509
      31A     -0.436793    32A     -0.436147    33A     -0.401678
      34A     -0.400987    35A     -0.321830    36A     -0.321167

    Virtual:

      37A      0.021465    38A      0.027642    39A      0.038694
      40A      0.043840    41A      0.048976    42A      0.050002
      43A      0.060569    44A      0.062175    45A      0.084018
      46A      0.091785    47A      0.099912    48A      0.101222
      49A      0.118948    50A      0.120369    51A      0.124747
      52A      0.125283    53A      0.131846    54A      0.132464
      55A      0.134163    56A      0.134439    57A      0.138895
      58A      0.140947    59A      0.153366    60A      0.156406
      61A      0.156780    62A      0.169745    63A      0.170826
      64A      0.171502    65A      0.177851    66A      0.178465
      67A      0.185589    68A      0.188970    69A      0.210322
      70A      0.211094    71A      0.219555    72A      0.219869
      73A      0.231147    74A      0.231988    75A      0.239713
      76A      0.242797    77A      0.260703    78A      0.261212
      79A      0.265538    80A      0.267677    81A      0.274616
      82A      0.281795    83A      0.300968    84A      0.303262
      85A      0.312732    86A      0.315449    87A      0.337377
      88A      0.337894    89A      0.360511    90A      0.361488
      91A      0.370041    92A      0.370674    93A      0.379085
      94A      0.380618    95A      0.387272    96A      0.388103
      97A      0.396464    98A      0.397039    99A      0.416347
     100A      0.418412   101A      0.427978   102A      0.428547
     103A      0.450594   104A      0.453111   105A      0.465618
     106A      0.466090   107A      0.479961   108A      0.481340
     109A      0.485391   110A      0.486067   111A      0.487577
     112A      0.487816   113A      0.550319   114A      0.551691
     115A      0.554329   116A      0.558986   117A      0.567125
     118A      0.568584   119A      0.575197   120A      0.576179
     121A      0.593444   122A      0.594609   123A      0.597901
     124A      0.599340   125A      0.614919   126A      0.616189
     127A      0.635427   128A      0.636375   129A      0.651625
     130A      0.651947   131A      0.668264   132A      0.668815
     133A      0.670477   134A      0.670987   135A      0.677201
     136A      0.677899   137A      0.682844   138A      0.683659
     139A      0.714042   140A      0.714416   141A      0.724915
     142A      0.725436   143A      0.740164   144A      0.740990
     145A      0.761493   146A      0.762168   147A      0.766646
     148A      0.767156   149A      0.789733   150A      0.790361
     151A      0.792646   152A      0.793779   153A      0.808416
     154A      0.810083   155A      0.859214   156A      0.861317
     157A      0.870252   158A      0.871430   159A      0.884619
     160A      0.885249   161A      0.888829   162A      0.889467
     163A      0.952932   164A      0.954909   165A      0.975814
     166A      0.976967   167A      0.997190   168A      0.998066
     169A      1.009409   170A      1.010165   171A      1.016224
     172A      1.017281   173A      1.029553   174A      1.030230
     175A      1.076087   176A      1.077193   177A      1.083462
     178A      1.084084   179A      1.125833   180A      1.126967
     181A      1.139351   182A      1.140045   183A      1.148448
     184A      1.149107   185A      1.166148   186A      1.167237
     187A      1.216258   188A      1.216952   189A      1.259805
     190A      1.260484   191A      1.301384   192A      1.302129
     193A      1.383892   194A      1.385718   195A      1.397021
     196A      1.397706   197A      1.450080   198A      1.450654
     199A      1.502094   200A      1.503319   201A      1.517372
     202A      1.517995   203A      1.573017   204A      1.573155
     205A      1.573818   206A      1.573852   207A      1.595416
     208A      1.596709   209A      1.651094   210A      1.651749
     211A      1.670457   212A      1.671103   213A      1.704424
     214A      1.705306   215A      1.723208   216A      1.723945
     217A      1.781643   218A      1.782218   219A      1.798035
     220A      1.798755   221A      1.805953   222A      1.806691
     223A      1.863828   224A      1.865241   225A      1.879988
     226A      1.882050   227A      1.923157   228A      1.923836
     229A      1.964010   230A      1.964603   231A      2.020942
     232A      2.021785   233A      2.024423   234A      2.025206
     235A      2.071944   236A      2.072603   237A      2.106127
     238A      2.106609   239A      2.125722   240A      2.126311
     241A      2.134878   242A      2.135519   243A      2.167346
     244A      2.169130   245A      2.177783   246A      2.178378
     247A      2.265951   248A      2.266716   249A      2.274767
     250A      2.275464   251A      2.299587   252A      2.301043
     253A      2.331044   254A      2.331746   255A      2.416733
     256A      2.417386   257A      2.495749   258A      2.496991
     259A      2.512742   260A      2.514221   261A      2.544517
     262A      2.545333   263A      2.584641   264A      2.585329
     265A      2.632618   266A      2.633342   267A      2.733224
     268A      2.733725   269A      2.745809   270A      2.746887
     271A      2.765994   272A      2.767067   273A      2.793049
     274A      2.793681   275A      2.802228   276A      2.802929
     277A      2.836695   278A      2.837602   279A      2.866020
     280A      2.866732   281A      2.951699   282A      2.952583
     283A      2.979716   284A      2.980388   285A      3.050104
     286A      3.050754   287A      3.068798   288A      3.069443
     289A      3.197895   290A      3.199166   291A      3.207651
     292A      3.208381   293A      3.333658   294A      3.334454
     295A      3.353394   296A      3.354097   297A      3.517372
     298A      3.518042   299A      3.767136   300A      3.768014
     301A      4.108193   302A      4.108665

    Final Occupation by Irrep:
              A
    DOCC [    36 ]

  @DF-RHF Final Energy:  -449.68763842050242

   => Energetics <=

    Nuclear Repulsion Energy =            391.4812460223799349
    One-Electron Energy =               -1384.4202067862474905
    Two-Electron Energy =                 543.2513223433651319
    Total Energy =                       -449.6876384205023669

Computation Completed


Properties will be evaluated at   0.000000,   0.000000,   0.000000 [a0]

Properties computed using the SCF density matrix

  Nuclear Dipole Moment: [e a0]
     X:  -679.2837      Y:   -75.4944      Z:  -269.2912

  Electronic Dipole Moment: [e a0]
     X:   679.2810      Y:    75.8136      Z:   269.2883

  Dipole Moment: [e a0]
     X:    -0.0027      Y:     0.3192      Z:    -0.0029     Total:     0.3192

  Dipole Moment: [D]
     X:    -0.0069      Y:     0.8114      Z:    -0.0074     Total:     0.8114


*** tstop() called on ds1 at Tue Sep 14 16:45:32 2021
Module time:
	user time   =      26.72 seconds =       0.45 minutes
	system time =       0.64 seconds =       0.01 minutes
	total time  =          6 seconds =       0.10 minutes
Total time:
	user time   =      26.72 seconds =       0.45 minutes
	system time =       0.64 seconds =       0.01 minutes
	total time  =          6 seconds =       0.10 minutes

  //>>>>>>>>>>>>>>>>>>>>>>>>>>>>>>>>>>>//
  //            Monomer A HF           //
  //<<<<<<<<<<<<<<<<<<<<<<<<<<<<<<<<<<<//


*** tstart() called on ds1
*** at Tue Sep 14 16:45:32 2021

   => Loading Basis Set <=

    Name: AUG-CC-PVDZ
    Role: ORBITAL
    Keyword: BASIS
    atoms 1-2, 10-11 entry N          line   218 file /theoryfs2/ds/csargent/miniconda3/envs/cle/share/psi4/basis/aug-cc-pvdz.gbs
    atoms 3-6, 12-15 entry H          line    40 file /theoryfs2/ds/csargent/miniconda3/envs/cle/share/psi4/basis/aug-cc-pvdz.gbs
    atoms 7-9, 16-18 entry C          line   182 file /theoryfs2/ds/csargent/miniconda3/envs/cle/share/psi4/basis/aug-cc-pvdz.gbs


         ---------------------------------------------------------
                                   SCF
               by Justin Turney, Rob Parrish, Andy Simmonett
                          and Daniel G. A. Smith
                              RHF Reference
                        6 Threads,   6675 MiB Core
         ---------------------------------------------------------

  ==> Geometry <==

    Molecular point group: c1
    Full point group: C1

    Geometry (in Bohr), charge = 0, multiplicity = 1:

       Center              X                  Y                   Z               Mass
    ------------   -----------------  -----------------  -----------------  -----------------
         N           -4.293096210000    -3.068374310000     5.305162310000    14.003074004430
         N           -2.158473710000    -2.926272960000     1.720374480000    14.003074004430
         H           -0.025455870000    -6.359035750000     2.220464520000     1.007825032230
         H           -2.685669680000    -6.532602410000     6.614459540000     1.007825032230
         H           -4.743884230000    -0.006090060000     2.756159680000     1.007825032230
         H           -1.410455400000    -2.247231470000     0.000000000000     1.007825032230
         C           -1.437379910000    -5.075048480000     2.940658910000    12.000000000000
         C           -2.769007820000    -5.146099160000     5.135228800000    12.000000000000
         C           -3.859550360000    -1.777281980000     3.210934110000    12.000000000000
      Gh(N)         -14.575896100000     2.006674170000   -12.785473540000    14.003074004430
      Gh(N)         -16.710518600000     2.148775530000    -9.200685710000    14.003074004430
      Gh(H)         -18.843536440000    -1.283987270000    -9.700775750000     1.007825032230
      Gh(H)         -16.183322630000    -1.457553920000   -14.094770770000     1.007825032230
      Gh(H)         -14.125108090000     5.068958420000   -10.236470900000     1.007825032230
      Gh(H)         -17.458536910000     2.827817010000    -7.480311230000     1.007825032230
      Gh(C)         -17.431612400000     0.000000000000   -10.420970140000    12.000000000000
      Gh(C)         -16.099984490000    -0.071050680000   -12.615540030000    12.000000000000
      Gh(C)         -15.009441950000     3.297766500000   -10.691245340000    12.000000000000

  Running in c1 symmetry.

  Rotational constants: A =      0.02026  B =      0.00229  C =      0.00210 [cm^-1]
  Rotational constants: A =    607.42851  B =     68.58338  C =     62.96776 [MHz]
  Nuclear repulsion =  164.086695994184396

  Charge       = 0
  Multiplicity = 1
  Electrons    = 36
  Nalpha       = 18
  Nbeta        = 18

  ==> Algorithm <==

  SCF Algorithm Type is DF.
  DIIS enabled.
  MOM disabled.
  Fractional occupation disabled.
  Guess Type is SAD.
  Energy threshold   = 1.00e-10
  Density threshold  = 1.00e-10
  Integral threshold = 1.00e-12

  ==> Primary Basis <==

  Basis Set: AUG-CC-PVDZ
    Blend: AUG-CC-PVDZ
    Number of shells: 130
    Number of basis functions: 302
    Number of Cartesian functions: 322
    Spherical Harmonics?: true
    Max angular momentum: 2

   => Loading Basis Set <=

    Name: (AUG-CC-PVDZ AUX)
    Role: JKFIT
    Keyword: DF_BASIS_SCF
    atoms 1-2, 10-11 entry N          line   212 file /theoryfs2/ds/csargent/miniconda3/envs/cle/share/psi4/basis/aug-cc-pvdz-jkfit.gbs
    atoms 3-6, 12-15 entry H          line    70 file /theoryfs2/ds/csargent/miniconda3/envs/cle/share/psi4/basis/aug-cc-pvdz-jkfit.gbs
    atoms 7-9, 16-18 entry C          line   154 file /theoryfs2/ds/csargent/miniconda3/envs/cle/share/psi4/basis/aug-cc-pvdz-jkfit.gbs

  ==> Integral Setup <==

  ==> DiskDFJK: Density-Fitted J/K Matrices <==

    J tasked:                  Yes
    K tasked:                  Yes
    wK tasked:                  No
    OpenMP threads:              6
    Integrals threads:           6
    Memory [MiB]:             5006
    Algorithm:                Core
    Integral Cache:           LOAD
    Schwarz Cutoff:          1E-12
    Fitting Condition:       1E-10

   => Auxiliary Basis Set <=

  Basis Set: (AUG-CC-PVDZ AUX)
    Blend: AUG-CC-PVDZ-JKFIT
    Number of shells: 376
    Number of basis functions: 1116
    Number of Cartesian functions: 1290
    Spherical Harmonics?: true
    Max angular momentum: 3

  Minimum eigenvalue in the overlap matrix is 2.1757518520E-05.
  Reciprocal condition number of the overlap matrix is 1.8322637319E-06.
    Using symmetric orthogonalization.

  ==> Pre-Iterations <==

  SCF Guess: Superposition of Atomic Densities via on-the-fly atomic UHF (no occupation information).

   -------------------------
    Irrep   Nso     Nmo
   -------------------------
     A        302     302
   -------------------------
    Total     302     302
   -------------------------

  ==> Iterations <==

                           Total Energy        Delta E     RMS |[F,P]|

   @DF-RHF iter SAD:  -224.55857170631239   -2.24559e+02   0.00000e+00
   @DF-RHF iter   1:  -224.69806538477630   -1.39494e-01   1.63068e-03 DIIS
   @DF-RHF iter   2:  -224.80532112778616   -1.07256e-01   9.27385e-04 DIIS
   @DF-RHF iter   3:  -224.84168907687837   -3.63679e-02   1.74020e-04 DIIS
   @DF-RHF iter   4:  -224.84337433714390   -1.68526e-03   7.98973e-05 DIIS
   @DF-RHF iter   5:  -224.84367591817482   -3.01581e-04   1.26452e-05 DIIS
   @DF-RHF iter   6:  -224.84369325514515   -1.73370e-05   5.61869e-06 DIIS
   @DF-RHF iter   7:  -224.84369634318648   -3.08804e-06   2.19504e-06 DIIS
   @DF-RHF iter   8:  -224.84369707510302   -7.31917e-07   7.77590e-07 DIIS
   @DF-RHF iter   9:  -224.84369718589809   -1.10795e-07   1.87963e-07 DIIS
   @DF-RHF iter  10:  -224.84369719143410   -5.53601e-09   7.33134e-08 DIIS
   @DF-RHF iter  11:  -224.84369719226038   -8.26276e-10   3.26921e-08 DIIS
   @DF-RHF iter  12:  -224.84369719241232   -1.51942e-10   9.70902e-09 DIIS
   @DF-RHF iter  13:  -224.84369719242576   -1.34435e-11   3.58846e-09 DIIS
   @DF-RHF iter  14:  -224.84369719242724   -1.47793e-12   1.58277e-09 DIIS
   @DF-RHF iter  15:  -224.84369719242770   -4.54747e-13   5.27557e-10 DIIS
   @DF-RHF iter  16:  -224.84369719242792   -2.27374e-13   2.34518e-10 DIIS
   @DF-RHF iter  17:  -224.84369719242744    4.83169e-13   4.71141e-11 DIIS
  Energy and wave function converged.


  ==> Post-Iterations <==

    Orbital Energies [Eh]
    ---------------------

    Doubly Occupied:

       1A    -15.637071     2A    -15.551216     3A    -11.300915
       4A    -11.263160     5A    -11.245653     6A     -1.352867
       7A     -1.169098     8A     -1.012098     9A     -0.824389
      10A     -0.803731    11A     -0.760666    12A     -0.610096
      13A     -0.603958    14A     -0.601922    15A     -0.570942
      16A     -0.435483    17A     -0.400464    18A     -0.320685

    Virtual:

      19A      0.019555    20A      0.026296    21A      0.037029
      22A      0.042539    23A      0.043893    24A      0.050484
      25A      0.061414    26A      0.067957    27A      0.075184
      28A      0.084727    29A      0.089840    30A      0.096721
      31A      0.101560    32A      0.120270    33A      0.122836
      34A      0.124233    35A      0.124897    36A      0.126514
      37A      0.126778    38A      0.131138    39A      0.133599
      40A      0.134920    41A      0.137555    42A      0.142613
      43A      0.155905    44A      0.156543    45A      0.166072
      46A      0.172042    47A      0.178186    48A      0.187171
      49A      0.192389    50A      0.207512    51A      0.209072
      52A      0.211474    53A      0.213399    54A      0.219166
      55A      0.219708    56A      0.222471    57A      0.232194
      58A      0.233391    59A      0.242698    60A      0.261897
      61A      0.268221    62A      0.271255    63A      0.279229
      64A      0.298056    65A      0.301843    66A      0.305907
      67A      0.314769    68A      0.318473    69A      0.338172
      70A      0.360480    71A      0.361589    72A      0.371201
      73A      0.375192    74A      0.381037    75A      0.388297
      76A      0.392524    77A      0.397447    78A      0.418376
      79A      0.426949    80A      0.429087    81A      0.434858
      82A      0.440928    83A      0.448313    84A      0.450899
      85A      0.453708    86A      0.466547    87A      0.467599
      88A      0.479278    89A      0.482735    90A      0.486524
      91A      0.488215    92A      0.516718    93A      0.520102
      94A      0.535043    95A      0.537954    96A      0.542537
      97A      0.552064    98A      0.554849    99A      0.557817
     100A      0.568414   101A      0.576573   102A      0.578615
     103A      0.587071   104A      0.594912   105A      0.599155
     106A      0.605907   107A      0.611020   108A      0.616346
     109A      0.617489   110A      0.636668   111A      0.638947
     112A      0.652559   113A      0.669331   114A      0.671364
     115A      0.676687   116A      0.678448   117A      0.682848
     118A      0.683895   119A      0.710040   120A      0.714731
     121A      0.725779   122A      0.735350   123A      0.741677
     124A      0.755253   125A      0.762855   126A      0.767619
     127A      0.790888   128A      0.793560   129A      0.798333
     130A      0.809703   131A      0.810051   132A      0.812423
     133A      0.822606   134A      0.835577   135A      0.858658
     136A      0.861009   137A      0.871798   138A      0.885484
     139A      0.885868   140A      0.889829   141A      0.909003
     142A      0.918643   143A      0.925956   144A      0.954759
     145A      0.967855   146A      0.977266   147A      0.990792
     148A      0.998489   149A      1.010758   150A      1.014467
     151A      1.017547   152A      1.030730   153A      1.058324
     154A      1.077004   155A      1.078867   156A      1.084707
     157A      1.103419   158A      1.115298   159A      1.127449
     160A      1.131640   161A      1.140595   162A      1.149572
     163A      1.167695   164A      1.169925   165A      1.173070
     166A      1.196509   167A      1.209731   168A      1.217513
     169A      1.260885   170A      1.276908   171A      1.289590
     172A      1.295908   173A      1.302620   174A      1.311750
     175A      1.317195   176A      1.346494   177A      1.383171
     178A      1.385973   179A      1.398299   180A      1.451159
     181A      1.493975   182A      1.503835   183A      1.514779
     184A      1.518430   185A      1.540505   186A      1.574142
     187A      1.574343   188A      1.597036   189A      1.652184
     190A      1.660035   191A      1.671556   192A      1.705379
     193A      1.724565   194A      1.782651   195A      1.799236
     196A      1.807156   197A      1.865285   198A      1.881994
     199A      1.924393   200A      1.965017   201A      2.022118
     202A      2.025482   203A      2.038887   204A      2.073037
     205A      2.100060   206A      2.107077   207A      2.118447
     208A      2.126761   209A      2.130721   210A      2.135970
     211A      2.148768   212A      2.168866   213A      2.178828
     214A      2.184453   215A      2.229090   216A      2.251939
     217A      2.267177   218A      2.276008   219A      2.300982
     220A      2.308366   221A      2.326190   222A      2.332218
     223A      2.376377   224A      2.405119   225A      2.412908
     226A      2.417799   227A      2.455176   228A      2.470188
     229A      2.493230   230A      2.497221   231A      2.514081
     232A      2.524873   233A      2.544440   234A      2.545743
     235A      2.576177   236A      2.585778   237A      2.599098
     238A      2.633830   239A      2.695887   240A      2.734147
     241A      2.747194   242A      2.767436   243A      2.789622
     244A      2.794156   245A      2.803453   246A      2.828323
     247A      2.837965   248A      2.867231   249A      2.894810
     250A      2.932728   251A      2.949400   252A      2.952986
     253A      2.980922   254A      3.042672   255A      3.051217
     256A      3.069928   257A      3.075579   258A      3.131905
     259A      3.158826   260A      3.182124   261A      3.199540
     262A      3.208842   263A      3.212858   264A      3.334939
     265A      3.340174   266A      3.353958   267A      3.354599
     268A      3.362517   269A      3.457966   270A      3.493426
     271A      3.518561   272A      3.569325   273A      3.608167
     274A      3.706525   275A      3.726046   276A      3.768534
     277A      3.777865   278A      3.797597   279A      3.857521
     280A      3.869882   281A      4.003049   282A      4.109072
     283A      4.211991   284A      4.636022   285A      4.638042
     286A      4.695316   287A      4.771129   288A      4.879480
     289A      5.020796   290A      5.253768   291A      5.372373
     292A      5.493942   293A      5.609735   294A      5.715639
     295A      5.883077   296A      6.089100   297A      6.197279
     298A     18.254905   299A     18.589105   300A     19.300166
     301A     25.310853   302A     25.452667

    Final Occupation by Irrep:
              A
    DOCC [    18 ]

  @DF-RHF Final Energy:  -224.84369719242744

   => Energetics <=

    Nuclear Repulsion Energy =            164.0866959941843959
    One-Electron Energy =                -628.9319634426626635
    Two-Electron Energy =                 240.0015702560507975
    Total Energy =                       -224.8436971924274417

Computation Completed


Properties will be evaluated at   0.000000,   0.000000,   0.000000 [a0]

Properties computed using the SCF density matrix

  Nuclear Dipole Moment: [e a0]
     X:  -102.4221      Y:  -129.0981      Z:   128.4908

  Electronic Dipole Moment: [e a0]
     X:   103.2259      Y:   129.2613      Z:  -129.8232

  Dipole Moment: [e a0]
     X:     0.8038      Y:     0.1633      Z:    -1.3324     Total:     1.5646

  Dipole Moment: [D]
     X:     2.0431      Y:     0.4150      Z:    -3.3867     Total:     3.9769


*** tstop() called on ds1 at Tue Sep 14 16:45:36 2021
Module time:
	user time   =      19.12 seconds =       0.32 minutes
	system time =       0.38 seconds =       0.01 minutes
	total time  =          4 seconds =       0.07 minutes
Total time:
	user time   =      46.05 seconds =       0.77 minutes
	system time =       1.02 seconds =       0.02 minutes
	total time  =         10 seconds =       0.17 minutes

  //>>>>>>>>>>>>>>>>>>>>>>>>>>>>>>>>>>>//
  //            Monomer B HF           //
  //<<<<<<<<<<<<<<<<<<<<<<<<<<<<<<<<<<<//


*** tstart() called on ds1
*** at Tue Sep 14 16:45:36 2021

   => Loading Basis Set <=

    Name: AUG-CC-PVDZ
    Role: ORBITAL
    Keyword: BASIS
    atoms 1-2, 10-11 entry N          line   218 file /theoryfs2/ds/csargent/miniconda3/envs/cle/share/psi4/basis/aug-cc-pvdz.gbs
    atoms 3-6, 12-15 entry H          line    40 file /theoryfs2/ds/csargent/miniconda3/envs/cle/share/psi4/basis/aug-cc-pvdz.gbs
    atoms 7-9, 16-18 entry C          line   182 file /theoryfs2/ds/csargent/miniconda3/envs/cle/share/psi4/basis/aug-cc-pvdz.gbs


         ---------------------------------------------------------
                                   SCF
               by Justin Turney, Rob Parrish, Andy Simmonett
                          and Daniel G. A. Smith
                              RHF Reference
                        6 Threads,   6675 MiB Core
         ---------------------------------------------------------

  ==> Geometry <==

    Molecular point group: c1
    Full point group: C1

    Geometry (in Bohr), charge = 0, multiplicity = 1:

       Center              X                  Y                   Z               Mass
    ------------   -----------------  -----------------  -----------------  -----------------
      Gh(N)          -4.293096210000    -3.068374310000     5.305162310000    14.003074004430
      Gh(N)          -2.158473710000    -2.926272960000     1.720374480000    14.003074004430
      Gh(H)          -0.025455870000    -6.359035750000     2.220464520000     1.007825032230
      Gh(H)          -2.685669680000    -6.532602410000     6.614459540000     1.007825032230
      Gh(H)          -4.743884230000    -0.006090060000     2.756159680000     1.007825032230
      Gh(H)          -1.410455400000    -2.247231470000     0.000000000000     1.007825032230
      Gh(C)          -1.437379910000    -5.075048480000     2.940658910000    12.000000000000
      Gh(C)          -2.769007820000    -5.146099160000     5.135228800000    12.000000000000
      Gh(C)          -3.859550360000    -1.777281980000     3.210934110000    12.000000000000
         N          -14.575896100000     2.006674170000   -12.785473540000    14.003074004430
         N          -16.710518600000     2.148775530000    -9.200685710000    14.003074004430
         H          -18.843536440000    -1.283987270000    -9.700775750000     1.007825032230
         H          -16.183322630000    -1.457553920000   -14.094770770000     1.007825032230
         H          -14.125108090000     5.068958420000   -10.236470900000     1.007825032230
         H          -17.458536910000     2.827817010000    -7.480311230000     1.007825032230
         C          -17.431612400000     0.000000000000   -10.420970140000    12.000000000000
         C          -16.099984490000    -0.071050680000   -12.615540030000    12.000000000000
         C          -15.009441950000     3.297766500000   -10.691245340000    12.000000000000

  Running in c1 symmetry.

  Rotational constants: A =      0.02026  B =      0.00229  C =      0.00210 [cm^-1]
  Rotational constants: A =    607.42851  B =     68.58338  C =     62.96776 [MHz]
  Nuclear repulsion =  164.086695984495464

  Charge       = 0
  Multiplicity = 1
  Electrons    = 36
  Nalpha       = 18
  Nbeta        = 18

  ==> Algorithm <==

  SCF Algorithm Type is DF.
  DIIS enabled.
  MOM disabled.
  Fractional occupation disabled.
  Guess Type is SAD.
  Energy threshold   = 1.00e-10
  Density threshold  = 1.00e-10
  Integral threshold = 1.00e-12

  ==> Primary Basis <==

  Basis Set: AUG-CC-PVDZ
    Blend: AUG-CC-PVDZ
    Number of shells: 130
    Number of basis functions: 302
    Number of Cartesian functions: 322
    Spherical Harmonics?: true
    Max angular momentum: 2

   => Loading Basis Set <=

    Name: (AUG-CC-PVDZ AUX)
    Role: JKFIT
    Keyword: DF_BASIS_SCF
    atoms 1-2, 10-11 entry N          line   212 file /theoryfs2/ds/csargent/miniconda3/envs/cle/share/psi4/basis/aug-cc-pvdz-jkfit.gbs
    atoms 3-6, 12-15 entry H          line    70 file /theoryfs2/ds/csargent/miniconda3/envs/cle/share/psi4/basis/aug-cc-pvdz-jkfit.gbs
    atoms 7-9, 16-18 entry C          line   154 file /theoryfs2/ds/csargent/miniconda3/envs/cle/share/psi4/basis/aug-cc-pvdz-jkfit.gbs

  ==> Integral Setup <==

  ==> DiskDFJK: Density-Fitted J/K Matrices <==

    J tasked:                  Yes
    K tasked:                  Yes
    wK tasked:                  No
    OpenMP threads:              6
    Integrals threads:           6
    Memory [MiB]:             5006
    Algorithm:                Core
    Integral Cache:           LOAD
    Schwarz Cutoff:          1E-12
    Fitting Condition:       1E-10

   => Auxiliary Basis Set <=

  Basis Set: (AUG-CC-PVDZ AUX)
    Blend: AUG-CC-PVDZ-JKFIT
    Number of shells: 376
    Number of basis functions: 1116
    Number of Cartesian functions: 1290
    Spherical Harmonics?: true
    Max angular momentum: 3

  Minimum eigenvalue in the overlap matrix is 2.1757518520E-05.
  Reciprocal condition number of the overlap matrix is 1.8322637319E-06.
    Using symmetric orthogonalization.

  ==> Pre-Iterations <==

  SCF Guess: Superposition of Atomic Densities via on-the-fly atomic UHF (no occupation information).

   -------------------------
    Irrep   Nso     Nmo
   -------------------------
     A        302     302
   -------------------------
    Total     302     302
   -------------------------

  ==> Iterations <==

                           Total Energy        Delta E     RMS |[F,P]|

   @DF-RHF iter SAD:  -224.55857171084972   -2.24559e+02   0.00000e+00
   @DF-RHF iter   1:  -224.69806552007191   -1.39494e-01   1.63068e-03 DIIS
   @DF-RHF iter   2:  -224.80532115569076   -1.07256e-01   9.27386e-04 DIIS
   @DF-RHF iter   3:  -224.84168912737596   -3.63680e-02   1.74020e-04 DIIS
   @DF-RHF iter   4:  -224.84337438492454   -1.68526e-03   7.98975e-05 DIIS
   @DF-RHF iter   5:  -224.84367596702026   -3.01582e-04   1.26451e-05 DIIS
   @DF-RHF iter   6:  -224.84369330411243   -1.73371e-05   5.61872e-06 DIIS
   @DF-RHF iter   7:  -224.84369639220927   -3.08810e-06   2.19505e-06 DIIS
   @DF-RHF iter   8:  -224.84369712413906   -7.31930e-07   7.77596e-07 DIIS
   @DF-RHF iter   9:  -224.84369723493714   -1.10798e-07   1.87965e-07 DIIS
   @DF-RHF iter  10:  -224.84369724047303   -5.53590e-09   7.33139e-08 DIIS
   @DF-RHF iter  11:  -224.84369724129968   -8.26645e-10   3.26927e-08 DIIS
   @DF-RHF iter  12:  -224.84369724145179   -1.52113e-10   9.70911e-09 DIIS
   @DF-RHF iter  13:  -224.84369724146507   -1.32729e-11   3.58851e-09 DIIS
   @DF-RHF iter  14:  -224.84369724146634   -1.27898e-12   1.58281e-09 DIIS
   @DF-RHF iter  15:  -224.84369724146669   -3.41061e-13   5.27566e-10 DIIS
   @DF-RHF iter  16:  -224.84369724146700   -3.12639e-13   2.34522e-10 DIIS
   @DF-RHF iter  17:  -224.84369724146728   -2.84217e-13   4.71155e-11 DIIS
  Energy and wave function converged.


  ==> Post-Iterations <==

    Orbital Energies [Eh]
    ---------------------

    Doubly Occupied:

       1A    -15.637071     2A    -15.551216     3A    -11.300916
       4A    -11.263160     5A    -11.245653     6A     -1.352867
       7A     -1.169098     8A     -1.012098     9A     -0.824389
      10A     -0.803731    11A     -0.760666    12A     -0.610096
      13A     -0.603958    14A     -0.601922    15A     -0.570942
      16A     -0.435483    17A     -0.400464    18A     -0.320685

    Virtual:

      19A      0.020414    20A      0.025852    21A      0.038386
      22A      0.043257    23A      0.043705    24A      0.050061
      25A      0.061545    26A      0.068234    27A      0.075226
      28A      0.082139    29A      0.093479    30A      0.097058
      31A      0.101645    32A      0.118936    33A      0.123494
      34A      0.124843    35A      0.125532    36A      0.126587
      37A      0.128490    38A      0.132668    39A      0.133909
      40A      0.135727    41A      0.138087    42A      0.142712
      43A      0.156232    44A      0.157397    45A      0.162836
      46A      0.172026    47A      0.178407    48A      0.186915
      49A      0.192772    50A      0.208019    51A      0.209427
      52A      0.211383    53A      0.212248    54A      0.218472
      55A      0.222077    56A      0.223708    57A      0.232636
      58A      0.233646    59A      0.242989    60A      0.261824
      61A      0.267960    62A      0.271819    63A      0.279257
      64A      0.299091    65A      0.301684    66A      0.310167
      67A      0.314751    68A      0.319762    69A      0.338365
      70A      0.360433    71A      0.361525    72A      0.371207
      73A      0.375469    74A      0.379980    75A      0.388394
      76A      0.392949    77A      0.397280    78A      0.417825
      79A      0.427259    80A      0.429327    81A      0.435237
      82A      0.440355    83A      0.448862    84A      0.451965
      85A      0.453063    86A      0.466313    87A      0.469032
      88A      0.480281    89A      0.481572    90A      0.486638
      91A      0.488311    92A      0.518457    93A      0.520547
      94A      0.535477    95A      0.538609    96A      0.543212
      97A      0.551864    98A      0.555559    99A      0.558157
     100A      0.568755   101A      0.576623   102A      0.579257
     103A      0.587449   104A      0.594806   105A      0.599122
     106A      0.606339   107A      0.611585   108A      0.616296
     109A      0.618659   110A      0.636601   111A      0.639590
     112A      0.652852   113A      0.669343   114A      0.671662
     115A      0.677455   116A      0.678542   117A      0.683480
     118A      0.684192   119A      0.710727   120A      0.715400
     121A      0.725895   122A      0.735886   123A      0.741320
     124A      0.755965   125A      0.762729   126A      0.767768
     127A      0.790992   128A      0.794022   129A      0.798265
     130A      0.809094   131A      0.811124   132A      0.812877
     133A      0.823181   134A      0.836191   135A      0.859170
     136A      0.861725   137A      0.871515   138A      0.885803
     139A      0.886153   140A      0.889868   141A      0.909702
     142A      0.919380   143A      0.926542   144A      0.954764
     145A      0.968458   146A      0.977072   147A      0.991389
     148A      0.998413   149A      1.010750   150A      1.015174
     151A      1.017827   152A      1.030694   153A      1.058821
     154A      1.077404   155A      1.078571   156A      1.084675
     157A      1.104054   158A      1.115851   159A      1.127066
     160A      1.132389   161A      1.140541   162A      1.149605
     163A      1.167313   164A      1.170548   165A      1.173828
     166A      1.197295   167A      1.211034   168A      1.217523
     169A      1.260826   170A      1.277877   171A      1.290230
     172A      1.296597   173A      1.302580   174A      1.312250
     175A      1.317805   176A      1.347154   177A      1.384008
     178A      1.385493   179A      1.398288   180A      1.451276
     181A      1.494809   182A      1.503432   183A      1.515659
     184A      1.518587   185A      1.541162   186A      1.574131
     187A      1.574454   188A      1.596722   189A      1.652361
     190A      1.660694   191A      1.671540   192A      1.705930
     193A      1.724594   194A      1.782753   195A      1.799157
     196A      1.807099   197A      1.865615   198A      1.881756
     199A      1.924396   200A      1.965189   201A      2.022069
     202A      2.025502   203A      2.039552   204A      2.073063
     205A      2.100610   206A      2.107194   207A      2.119882
     208A      2.126794   209A      2.131472   210A      2.135981
     211A      2.149276   212A      2.169252   213A      2.178903
     214A      2.185011   215A      2.229635   216A      2.252471
     217A      2.267087   218A      2.275974   219A      2.301297
     220A      2.308598   221A      2.326883   222A      2.332294
     223A      2.376797   224A      2.405902   225A      2.413497
     226A      2.417793   227A      2.456129   228A      2.471117
     229A      2.494182   230A      2.497064   231A      2.514703
     232A      2.525574   233A      2.545086   234A      2.545752
     235A      2.576829   236A      2.585749   237A      2.599757
     238A      2.633777   239A      2.696354   240A      2.734402
     241A      2.747175   242A      2.767141   243A      2.790155
     244A      2.794229   245A      2.803455   246A      2.828819
     247A      2.837845   248A      2.867220   249A      2.895364
     250A      2.933340   251A      2.949620   252A      2.952932
     253A      2.980985   254A      3.043405   255A      3.051215
     256A      3.069931   257A      3.076189   258A      3.131839
     259A      3.159430   260A      3.182762   261A      3.199224
     262A      3.208803   263A      3.213700   264A      3.334836
     265A      3.341361   266A      3.354579   267A      3.354695
     268A      3.362948   269A      3.458640   270A      3.494195
     271A      3.518566   272A      3.569811   273A      3.608742
     274A      3.707303   275A      3.726764   276A      3.768336
     277A      3.778505   278A      3.798339   279A      3.858125
     280A      3.870558   281A      4.003814   282A      4.109273
     283A      4.212875   284A      4.636715   285A      4.638792
     286A      4.696167   287A      4.771736   288A      4.880223
     289A      5.021558   290A      5.254387   291A      5.373067
     292A      5.494727   293A      5.610414   294A      5.716374
     295A      5.883766   296A      6.089875   297A      6.198002
     298A     18.255587   299A     18.589843   300A     19.300544
     301A     25.311537   302A     25.453422

    Final Occupation by Irrep:
              A
    DOCC [    18 ]

  @DF-RHF Final Energy:  -224.84369724146728

   => Energetics <=

    Nuclear Repulsion Energy =            164.0866959844954636
    One-Electron Energy =                -628.9319611452735899
    Two-Electron Energy =                 240.0015679193108440
    Total Energy =                       -224.8436972414672823

Computation Completed


Properties will be evaluated at   0.000000,   0.000000,   0.000000 [a0]

Properties computed using the SCF density matrix

  Nuclear Dipole Moment: [e a0]
     X:  -576.8616      Y:    53.6037      Z:  -397.7820

  Electronic Dipole Moment: [e a0]
     X:   576.0578      Y:   -53.4404      Z:   399.1144

  Dipole Moment: [e a0]
     X:    -0.8038      Y:     0.1633      Z:     1.3324     Total:     1.5647

  Dipole Moment: [D]
     X:    -2.0431      Y:     0.4150      Z:     3.3867     Total:     3.9769


*** tstop() called on ds1 at Tue Sep 14 16:45:41 2021
Module time:
	user time   =      20.00 seconds =       0.33 minutes
	system time =       0.38 seconds =       0.01 minutes
	total time  =          5 seconds =       0.08 minutes
Total time:
	user time   =      66.37 seconds =       1.11 minutes
	system time =       1.41 seconds =       0.02 minutes
	total time  =         15 seconds =       0.25 minutes
  Constructing Basis Sets for SAPT...

   => Loading Basis Set <=

    Name: (AUG-CC-PVDZ AUX)
    Role: RIFIT
    Keyword: DF_BASIS_SAPT
    atoms 1-2, 10-11 entry N          line   158 file /theoryfs2/ds/csargent/miniconda3/envs/cle/share/psi4/basis/aug-cc-pvdz-ri.gbs
    atoms 3-6, 12-15 entry H          line    30 file /theoryfs2/ds/csargent/miniconda3/envs/cle/share/psi4/basis/aug-cc-pvdz-ri.gbs
    atoms 7-9, 16-18 entry C          line   112 file /theoryfs2/ds/csargent/miniconda3/envs/cle/share/psi4/basis/aug-cc-pvdz-ri.gbs


  //>>>>>>>>>>>>>>>>>>>>>>>>>>>>>>>>>>>//
  //               SAPT0               //
  //<<<<<<<<<<<<<<<<<<<<<<<<<<<<<<<<<<<//


*** tstart() called on ds1
*** at Tue Sep 14 16:45:41 2021

        SAPT0
    Ed Hohenstein
     6 June 2009

      Orbital Information
  --------------------------
    NSO        =       302
    NMO        =       302
    NRI        =       904
    NOCC A     =        18
    NOCC B     =        18
    FOCC A     =         5
    FOCC B     =         5
    NVIR A     =       284
    NVIR B     =       284

    Elst10,r            =    -0.000241525144 [Eh]
    Exch10              =     0.000000000153 [Eh]
    Exch10 (S^2)        =     0.000000000153 [Eh]

    Iter     Energy [mEh]          dE [mEh]         Residual      Time [s]
       1      -0.00103486       0.001034865       0.337581562             1
       2      -0.00098219      -0.000052678       0.097121218             1
       3      -0.00110302       0.000120829       0.032586320             1
       4      -0.00111293       0.000009916       0.014252156             1
       5      -0.00110937      -0.000003563       0.006322881             1
       6      -0.00110813      -0.000001238       0.001911277             1
       7      -0.00110850       0.000000373       0.000805204             1
       8      -0.00110872       0.000000217       0.000205891             1
       9      -0.00110867      -0.000000054       0.000080755             2
      10      -0.00110865      -0.000000015       0.000021660             2
      11      -0.00110866       0.000000005       0.000008381             2
      12      -0.00110866       0.000000001       0.000003036             2
      13      -0.00110866      -0.000000001       0.000001012             2
      14      -0.00110866      -0.000000000       0.000000366             2

    CHF Iterations converged


    Iter     Energy [mEh]          dE [mEh]         Residual      Time [s]
       1      -0.00128615       0.001286154       0.363493039             0
       2      -0.00120356      -0.000082591       0.101586338             0
       3      -0.00132194       0.000118380       0.045918697             1
       4      -0.00134845       0.000026506       0.015724304             1
       5      -0.00134499      -0.000003461       0.008594867             1
       6      -0.00134170      -0.000003288       0.002494746             1
       7      -0.00134229       0.000000587       0.000862764             1
       8      -0.00134246       0.000000172       0.000292978             1
       9      -0.00134245      -0.000000015       0.000093762             1
      10      -0.00134242      -0.000000027       0.000022010             1
      11      -0.00134242       0.000000005       0.000009317             2
      12      -0.00134243       0.000000002       0.000002788             2
      13      -0.00134242      -0.000000001       0.000000991             2

    CHF Iterations converged

    Ind20,r (A<-B)      =    -0.000001108658 [Eh]
    Ind20,r (B<-A)      =    -0.000001342425 [Eh]
    Ind20,r             =    -0.000002451083 [Eh]
    Exch-Ind20,r (A<-B) =     0.000000000474 [Eh]
    Exch-Ind20,r (B<-A) =     0.000000000528 [Eh]
    Exch-Ind20,r        =     0.000000001001 [Eh]
    Disp20              =    -0.000016380304 [Eh]
    Disp20 (SS)         =    -0.000008190152 [Eh]
    Disp20 (OS)         =    -0.000008190152 [Eh]
    Exch-Disp20         =     0.000000000139 [Eh]
    Exch-Disp20 (SS)    =     0.000000000116 [Eh]
    Exch-Disp20 (OS)    =     0.000000000023 [Eh]

    SAPT Results
  --------------------------------------------------------------------------------------------------------
    Electrostatics                 -0.24152514 [mEh]      -0.15155932 [kcal/mol]      -0.63412418 [kJ/mol]
      Elst10,r                     -0.24152514 [mEh]      -0.15155932 [kcal/mol]      -0.63412418 [kJ/mol]

    Exchange                        0.00000015 [mEh]       0.00000010 [kcal/mol]       0.00000040 [kJ/mol]
      Exch10                        0.00000015 [mEh]       0.00000010 [kcal/mol]       0.00000040 [kJ/mol]
      Exch10(S^2)                   0.00000015 [mEh]       0.00000010 [kcal/mol]       0.00000040 [kJ/mol]

    Induction                      -0.00246162 [mEh]      -0.00154469 [kcal/mol]      -0.00646298 [kJ/mol]
      Ind20,r                      -0.00245108 [mEh]      -0.00153808 [kcal/mol]      -0.00643532 [kJ/mol]
      Exch-Ind20,r                  0.00000100 [mEh]       0.00000063 [kcal/mol]       0.00000263 [kJ/mol]
      delta HF,r (2)               -0.00001154 [mEh]      -0.00000724 [kcal/mol]      -0.00003029 [kJ/mol]

    Dispersion                     -0.01638017 [mEh]      -0.01027871 [kcal/mol]      -0.04300612 [kJ/mol]
      Disp20                       -0.01638030 [mEh]      -0.01027880 [kcal/mol]      -0.04300648 [kJ/mol]
      Exch-Disp20                   0.00000014 [mEh]       0.00000009 [kcal/mol]       0.00000036 [kJ/mol]
      Disp20 (SS)                  -0.00819015 [mEh]      -0.00513940 [kcal/mol]      -0.02150324 [kJ/mol]
      Disp20 (OS)                  -0.00819015 [mEh]      -0.00513940 [kcal/mol]      -0.02150324 [kJ/mol]
      Exch-Disp20 (SS)              0.00000012 [mEh]       0.00000007 [kcal/mol]       0.00000030 [kJ/mol]
      Exch-Disp20 (OS)              0.00000002 [mEh]       0.00000001 [kcal/mol]       0.00000006 [kJ/mol]

  Total HF                         -0.24398661 [mEh]      -0.15310391 [kcal/mol]      -0.64058675 [kJ/mol]
  Total SAPT0                      -0.26036677 [mEh]      -0.16338262 [kcal/mol]      -0.68359287 [kJ/mol]

  Special recipe for scaled SAPT0 (see Manual):
    Electrostatics sSAPT0          -0.24152514 [mEh]      -0.15155932 [kcal/mol]      -0.63412418 [kJ/mol]
    Exchange sSAPT0                 0.00000015 [mEh]       0.00000010 [kcal/mol]       0.00000040 [kJ/mol]
    Induction sSAPT0               -0.00246162 [mEh]      -0.00154469 [kcal/mol]      -0.00646298 [kJ/mol]
    Dispersion sSAPT0              -0.01638017 [mEh]      -0.01027871 [kcal/mol]      -0.04300612 [kJ/mol]
  Total sSAPT0                     -0.26036677 [mEh]      -0.16338262 [kcal/mol]      -0.68359287 [kJ/mol]
  --------------------------------------------------------------------------------------------------------

*** tstop() called on ds1 at Tue Sep 14 16:45:51 2021
Module time:
	user time   =      48.97 seconds =       0.82 minutes
	system time =       4.22 seconds =       0.07 minutes
	total time  =         10 seconds =       0.17 minutes
Total time:
	user time   =     116.33 seconds =       1.94 minutes
	system time =       5.66 seconds =       0.09 minutes
	total time  =         25 seconds =       0.42 minutes


Warning! sapt0 does not have an associated derived wavefunction.The returned wavefunction is the dimer SCF wavefunction.


    Psi4 stopped on: Tuesday, 14 September 2021 04:45PM
    Psi4 wall time for execution: 0:00:25.05

*** Psi4 exiting successfully. Buy a developer a beer!
