
    -----------------------------------------------------------------------
          Psi4: An Open-Source Ab Initio Electronic Structure Package
                               Psi4 1.4rc3

                         Git: Rev {HEAD} 080dba6


    D. G. A. Smith, L. A. Burns, A. C. Simmonett, R. M. Parrish,
    M. C. Schieber, R. Galvelis, P. Kraus, H. Kruse, R. Di Remigio,
    A. Alenaizan, A. M. James, S. Lehtola, J. P. Misiewicz, M. Scheurer,
    R. A. Shaw, J. B. Schriber, Y. Xie, Z. L. Glick, D. A. Sirianni,
    J. S. O'Brien, J. M. Waldrop, A. Kumar, E. G. Hohenstein,
    B. P. Pritchard, B. R. Brooks, H. F. Schaefer III, A. Yu. Sokolov,
    K. Patkowski, A. E. DePrince III, U. Bozkaya, R. A. King,
    F. A. Evangelista, J. M. Turney, T. D. Crawford, C. D. Sherrill,
    J. Chem. Phys. 152(18) 184108 (2020). https://doi.org/10.1063/5.0006002

                            Additional Code Authors
    E. T. Seidl, C. L. Janssen, E. F. Valeev, M. L. Leininger,
    J. F. Gonthier, R. M. Richard, H. R. McAlexander, M. Saitow, X. Wang,
    P. Verma, and M. H. Lechner

             Previous Authors, Complete List of Code Contributors,
                       and Citations for Specific Modules
    https://github.com/psi4/psi4/blob/master/codemeta.json
    https://github.com/psi4/psi4/graphs/contributors
    http://psicode.org/psi4manual/master/introduction.html#citing-psifour

    -----------------------------------------------------------------------


    Psi4 started on: Tuesday, 14 September 2021 05:46PM

    Process ID: 4110
    Host:       ds1
    PSIDATADIR: /theoryfs2/ds/csargent/miniconda3/envs/cle/share/psi4
    Memory:     500.0 MiB
    Threads:    6

  ==> Input File <==

--------------------------------------------------------------------------
# PSI4 file produced by CrystaLattE

# Generated from:               imidazole.xyz
# Psithon input for N-mer:      2mer-0+293
# Number of atoms per monomer:  [9, 9]
# Number of replicas:           1
# COM priority:                 2.935567291884e-05
# Minimum COM separations:      17.154
# Separation priority:          3.692530081911e-05
# Minimum monomer separations:  15.891
# Cutoff priority:              1.229604345777e-06
# Nuclear repulsion energy:     367.962386787134

memory 7 GB

molecule Dimer_0_293 {
  N           -4.29309621      -3.06837431       5.30516231
  N           -2.15847371      -2.92627296       1.72037448
  H           -0.02545587      -6.35903575       2.22046452
  H           -2.68566968      -6.53260241       6.61445954
  H           -4.74388423      -0.00609006       2.75615968
  H           -1.41045540      -2.24723147       0.00000000
  C           -1.43737991      -5.07504848       2.94065891
  C           -2.76900782      -5.14609916       5.13522880
  C           -3.85955036      -1.77728198       3.21093411
--
  N            5.99801847      14.12182991      27.67488576
  N            3.86339597      13.97972855      31.25967360
  H            1.73037812      17.41249134      30.75958356
  H            4.39059193      17.58605800      26.36558854
  H            6.44880648      11.05954565      30.22388840
  H            3.11537766      13.30068706      32.98004808
  C            3.14230217      16.12850408      30.03938916
  C            4.47393007      16.19955476      27.84481927
  C            5.56447261      12.83073757      29.76911396
units = au
no_com
no_reorient
}

set {
  e_convergence 10
  d_convergence 10
  scf_type df
  mp2_type df
  cc_type df
  freeze_core true
}

energy('sapt0/aug-cc-pvdz')

--------------------------------------------------------------------------

  Memory set to   6.519 GiB by Python driver.

Scratch directory: /scratch/csargent/psi4.31446.79897/

Scratch directory: /scratch/csargent/psi4.31446.79897/

  //>>>>>>>>>>>>>>>>>>>>>>>>>>>>>>>>>>>//
  //              Dimer HF             //
  //<<<<<<<<<<<<<<<<<<<<<<<<<<<<<<<<<<<//


*** tstart() called on ds1
*** at Tue Sep 14 17:46:14 2021

   => Loading Basis Set <=

    Name: AUG-CC-PVDZ
    Role: ORBITAL
    Keyword: BASIS
    atoms 1-2, 10-11 entry N          line   218 file /theoryfs2/ds/csargent/miniconda3/envs/cle/share/psi4/basis/aug-cc-pvdz.gbs
    atoms 3-6, 12-15 entry H          line    40 file /theoryfs2/ds/csargent/miniconda3/envs/cle/share/psi4/basis/aug-cc-pvdz.gbs
    atoms 7-9, 16-18 entry C          line   182 file /theoryfs2/ds/csargent/miniconda3/envs/cle/share/psi4/basis/aug-cc-pvdz.gbs


         ---------------------------------------------------------
                                   SCF
               by Justin Turney, Rob Parrish, Andy Simmonett
                          and Daniel G. A. Smith
                              RHF Reference
                        6 Threads,   6675 MiB Core
         ---------------------------------------------------------

  ==> Geometry <==

    Molecular point group: c1
    Full point group: C1

    Geometry (in Bohr), charge = 0, multiplicity = 1:

       Center              X                  Y                   Z               Mass
    ------------   -----------------  -----------------  -----------------  -----------------
         N           -4.293096210000    -3.068374310000     5.305162310000    14.003074004430
         N           -2.158473710000    -2.926272960000     1.720374480000    14.003074004430
         H           -0.025455870000    -6.359035750000     2.220464520000     1.007825032230
         H           -2.685669680000    -6.532602410000     6.614459540000     1.007825032230
         H           -4.743884230000    -0.006090060000     2.756159680000     1.007825032230
         H           -1.410455400000    -2.247231470000     0.000000000000     1.007825032230
         C           -1.437379910000    -5.075048480000     2.940658910000    12.000000000000
         C           -2.769007820000    -5.146099160000     5.135228800000    12.000000000000
         C           -3.859550360000    -1.777281980000     3.210934110000    12.000000000000
         N            5.998018470000    14.121829910000    27.674885760000    14.003074004430
         N            3.863395970000    13.979728550000    31.259673600000    14.003074004430
         H            1.730378120000    17.412491340000    30.759583560000     1.007825032230
         H            4.390591930000    17.586058000000    26.365588540000     1.007825032230
         H            6.448806480000    11.059545650000    30.223888400000     1.007825032230
         H            3.115377660000    13.300687060000    32.980048080000     1.007825032230
         C            3.142302170000    16.128504080000    30.039389160000    12.000000000000
         C            4.473930070000    16.199554760000    27.844819270000    12.000000000000
         C            5.564472610000    12.830737570000    29.769113960000    12.000000000000

  Running in c1 symmetry.

  Rotational constants: A =      0.02165  B =      0.00080  C =      0.00078 [cm^-1]
  Rotational constants: A =    649.02973  B =     23.97692  C =     23.30228 [MHz]
  Nuclear repulsion =  367.962386711323916

  Charge       = 0
  Multiplicity = 1
  Electrons    = 72
  Nalpha       = 36
  Nbeta        = 36

  ==> Algorithm <==

  SCF Algorithm Type is DF.
  DIIS enabled.
  MOM disabled.
  Fractional occupation disabled.
  Guess Type is SAD.
  Energy threshold   = 1.00e-10
  Density threshold  = 1.00e-10
  Integral threshold = 1.00e-12

  ==> Primary Basis <==

  Basis Set: AUG-CC-PVDZ
    Blend: AUG-CC-PVDZ
    Number of shells: 130
    Number of basis functions: 302
    Number of Cartesian functions: 322
    Spherical Harmonics?: true
    Max angular momentum: 2

   => Loading Basis Set <=

    Name: (AUG-CC-PVDZ AUX)
    Role: JKFIT
    Keyword: DF_BASIS_SCF
    atoms 1-2, 10-11 entry N          line   212 file /theoryfs2/ds/csargent/miniconda3/envs/cle/share/psi4/basis/aug-cc-pvdz-jkfit.gbs
    atoms 3-6, 12-15 entry H          line    70 file /theoryfs2/ds/csargent/miniconda3/envs/cle/share/psi4/basis/aug-cc-pvdz-jkfit.gbs
    atoms 7-9, 16-18 entry C          line   154 file /theoryfs2/ds/csargent/miniconda3/envs/cle/share/psi4/basis/aug-cc-pvdz-jkfit.gbs

  ==> Integral Setup <==

  ==> DiskDFJK: Density-Fitted J/K Matrices <==

    J tasked:                  Yes
    K tasked:                  Yes
    wK tasked:                  No
    OpenMP threads:              6
    Integrals threads:           6
    Memory [MiB]:             5006
    Algorithm:                Core
    Integral Cache:           SAVE
    Schwarz Cutoff:          1E-12
    Fitting Condition:       1E-10

   => Auxiliary Basis Set <=

  Basis Set: (AUG-CC-PVDZ AUX)
    Blend: AUG-CC-PVDZ-JKFIT
    Number of shells: 376
    Number of basis functions: 1116
    Number of Cartesian functions: 1290
    Spherical Harmonics?: true
    Max angular momentum: 3

  Minimum eigenvalue in the overlap matrix is 2.1836978692E-05.
  Reciprocal condition number of the overlap matrix is 1.8394443026E-06.
    Using symmetric orthogonalization.

  ==> Pre-Iterations <==

  SCF Guess: Superposition of Atomic Densities via on-the-fly atomic UHF (no occupation information).

   -------------------------
    Irrep   Nso     Nmo
   -------------------------
     A        302     302
   -------------------------
    Total     302     302
   -------------------------

  ==> Iterations <==

                           Total Energy        Delta E     RMS |[F,P]|

   @DF-RHF iter SAD:  -449.11714337462217   -4.49117e+02   0.00000e+00
   @DF-RHF iter   1:  -449.39612712040656   -2.78984e-01   2.30611e-03 DIIS
   @DF-RHF iter   2:  -449.61064648768138   -2.14519e-01   1.31141e-03 DIIS
   @DF-RHF iter   3:  -449.68337163444806   -7.27251e-02   2.46044e-04 DIIS
   @DF-RHF iter   4:  -449.68674122023879   -3.36959e-03   1.12962e-04 DIIS
   @DF-RHF iter   5:  -449.68734406294448   -6.02843e-04   1.78813e-05 DIIS
   @DF-RHF iter   6:  -449.68737873820339   -3.46753e-05   7.94447e-06 DIIS
   @DF-RHF iter   7:  -449.68738491386108   -6.17566e-06   3.10346e-06 DIIS
   @DF-RHF iter   8:  -449.68738637703933   -1.46318e-06   1.09946e-06 DIIS
   @DF-RHF iter   9:  -449.68738659852926   -2.21490e-07   2.65398e-07 DIIS
   @DF-RHF iter  10:  -449.68738660959360   -1.10643e-08   1.03184e-07 DIIS
   @DF-RHF iter  11:  -449.68738661123393   -1.64033e-09   4.62457e-08 DIIS
   @DF-RHF iter  12:  -449.68738661153697   -3.03032e-10   1.36999e-08 DIIS
   @DF-RHF iter  13:  -449.68738661156300   -2.60343e-11   5.07043e-09 DIIS
   @DF-RHF iter  14:  -449.68738661156652   -3.52429e-12   2.23617e-09 DIIS
   @DF-RHF iter  15:  -449.68738661156732   -7.95808e-13   7.45622e-10 DIIS
   @DF-RHF iter  16:  -449.68738661156686    4.54747e-13   3.31289e-10 DIIS
   @DF-RHF iter  17:  -449.68738661156709   -2.27374e-13   6.66376e-11 DIIS
  Energy and wave function converged.


  ==> Post-Iterations <==

    Orbital Energies [Eh]
    ---------------------

    Doubly Occupied:

       1A    -15.636234     2A    -15.636234     3A    -15.550378
       4A    -15.550378     5A    -11.300078     6A    -11.300078
       7A    -11.262340     8A    -11.262340     9A    -11.244838
      10A    -11.244838    11A     -1.352031    12A     -1.352031
      13A     -1.168264    14A     -1.168264    15A     -1.011270
      16A     -1.011270    17A     -0.823557    18A     -0.823557
      19A     -0.802906    20A     -0.802906    21A     -0.759834
      22A     -0.759834    23A     -0.609269    24A     -0.609269
      25A     -0.603120    26A     -0.603120    27A     -0.601099
      28A     -0.601099    29A     -0.570120    30A     -0.570120
      31A     -0.434649    32A     -0.434649    33A     -0.399630
      34A     -0.399630    35A     -0.319856    36A     -0.319856

    Virtual:

      37A      0.026217    38A      0.026218    39A      0.042370
      40A      0.042371    41A      0.050748    42A      0.050761
      43A      0.062598    44A      0.062608    45A      0.090006
      46A      0.090006    47A      0.102222    48A      0.102223
      49A      0.121704    50A      0.121704    51A      0.126387
      52A      0.126388    53A      0.134263    54A      0.134263
      55A      0.134517    56A      0.134518    57A      0.141785
      58A      0.141785    59A      0.157260    60A      0.157261
      61A      0.159558    62A      0.159566    63A      0.172686
      64A      0.172692    65A      0.179035    66A      0.179035
      67A      0.188064    68A      0.188070    69A      0.212422
      70A      0.212422    71A      0.221117    72A      0.221118
      73A      0.233189    74A      0.233190    75A      0.242251
      76A      0.242251    77A      0.262406    78A      0.262411
      79A      0.268590    80A      0.268592    81A      0.278770
      82A      0.278770    83A      0.302607    84A      0.302607
      85A      0.315272    86A      0.315273    87A      0.338987
      88A      0.338987    89A      0.362287    90A      0.362287
      91A      0.371565    92A      0.371566    93A      0.380627
      94A      0.380628    95A      0.389130    96A      0.389131
      97A      0.397897    98A      0.397909    99A      0.417822
     100A      0.417843   101A      0.429822   102A      0.429822
     103A      0.452900   104A      0.452900   105A      0.467195
     106A      0.467195   107A      0.482046   108A      0.482049
     109A      0.487084   110A      0.487084   111A      0.488954
     112A      0.488955   113A      0.552556   114A      0.552556
     115A      0.557201   116A      0.557207   117A      0.569097
     118A      0.569099   119A      0.577313   120A      0.577313
     121A      0.595070   122A      0.595070   123A      0.599769
     124A      0.599770   125A      0.616909   126A      0.616909
     127A      0.637353   128A      0.637353   129A      0.653320
     130A      0.653321   131A      0.670082   132A      0.670082
     133A      0.672167   134A      0.672167   135A      0.679011
     136A      0.679012   137A      0.684675   138A      0.684675
     139A      0.715527   140A      0.715527   141A      0.726592
     142A      0.726593   143A      0.742054   144A      0.742054
     145A      0.763530   146A      0.763530   147A      0.768221
     148A      0.768222   149A      0.791750   150A      0.791750
     151A      0.794467   152A      0.794467   153A      0.810572
     154A      0.810575   155A      0.861218   156A      0.861221
     157A      0.872251   158A      0.872251   159A      0.886591
     160A      0.886593   161A      0.890630   162A      0.890630
     163A      0.955194   164A      0.955194   165A      0.977800
     166A      0.977800   167A      0.999197   168A      0.999198
     169A      1.011530   170A      1.011530   171A      1.018236
     172A      1.018236   173A      1.031518   174A      1.031518
     175A      1.078185   176A      1.078186   177A      1.085391
     178A      1.085391   179A      1.127798   180A      1.127799
     181A      1.141317   182A      1.141318   183A      1.150401
     184A      1.150401   185A      1.167986   186A      1.167988
     187A      1.218285   188A      1.218285   189A      1.261539
     190A      1.261539   191A      1.303355   192A      1.303356
     193A      1.385861   194A      1.385861   195A      1.398975
     196A      1.398976   197A      1.451974   198A      1.451974
     199A      1.504114   200A      1.504115   201A      1.519248
     202A      1.519248   203A      1.574951   204A      1.574952
     205A      1.575098   206A      1.575100   207A      1.597204
     208A      1.597206   209A      1.652990   210A      1.652990
     211A      1.672325   212A      1.672325   213A      1.706105
     214A      1.706105   215A      1.725332   216A      1.725332
     217A      1.783468   218A      1.783468   219A      1.799885
     220A      1.799886   221A      1.807882   222A      1.807882
     223A      1.865780   224A      1.865785   225A      1.882317
     226A      1.882317   227A      1.925231   228A      1.925231
     229A      1.965816   230A      1.965816   231A      2.022835
     232A      2.022835   233A      2.026256   234A      2.026259
     235A      2.073809   236A      2.073810   237A      2.107881
     238A      2.107882   239A      2.127578   240A      2.127578
     241A      2.136778   242A      2.136779   243A      2.169494
     244A      2.169494   245A      2.179643   246A      2.179644
     247A      2.267910   248A      2.267910   249A      2.276793
     250A      2.276793   251A      2.301766   252A      2.301766
     253A      2.332907   254A      2.332907   255A      2.418577
     256A      2.418577   257A      2.497755   258A      2.497755
     259A      2.514858   260A      2.514858   261A      2.546184
     262A      2.546185   263A      2.586568   264A      2.586568
     265A      2.634591   266A      2.634591   267A      2.734906
     268A      2.734908   269A      2.747863   270A      2.747863
     271A      2.767913   272A      2.767914   273A      2.794981
     274A      2.794981   275A      2.804275   276A      2.804276
     277A      2.838470   278A      2.838470   279A      2.868052
     280A      2.868052   281A      2.953569   282A      2.953570
     283A      2.981698   284A      2.981698   285A      3.052022
     286A      3.052022   287A      3.070734   288A      3.070734
     289A      3.200000   290A      3.200000   291A      3.209622
     292A      3.209623   293A      3.335650   294A      3.335650
     295A      3.355402   296A      3.355403   297A      3.519385
     298A      3.519385   299A      3.769125   300A      3.769125
     301A      4.109843   302A      4.109847

    Final Occupation by Irrep:
              A
    DOCC [    36 ]

  @DF-RHF Final Energy:  -449.68738661156709

   => Energetics <=

    Nuclear Repulsion Energy =            367.9623867113239157
    One-Electron Energy =               -1337.5016561416653076
    Two-Electron Energy =                 519.8518828187743566
    Total Energy =                       -449.6873866115670353

Computation Completed


Properties will be evaluated at   0.000000,   0.000000,   0.000000 [a0]

Properties computed using the SCF density matrix

  Nuclear Dipole Moment: [e a0]
     X:    61.3772      Y:   397.9244      Z:  1187.2817

  Electronic Dipole Moment: [e a0]
     X:   -61.3772      Y:  -397.9244      Z: -1187.2817

  Dipole Moment: [e a0]
     X:    -0.0000      Y:    -0.0000      Z:    -0.0000     Total:     0.0000

  Dipole Moment: [D]
     X:    -0.0000      Y:    -0.0000      Z:    -0.0000     Total:     0.0000


*** tstop() called on ds1 at Tue Sep 14 17:46:18 2021
Module time:
	user time   =      22.32 seconds =       0.37 minutes
	system time =       0.58 seconds =       0.01 minutes
	total time  =          4 seconds =       0.07 minutes
Total time:
	user time   =      22.32 seconds =       0.37 minutes
	system time =       0.58 seconds =       0.01 minutes
	total time  =          4 seconds =       0.07 minutes

  //>>>>>>>>>>>>>>>>>>>>>>>>>>>>>>>>>>>//
  //            Monomer A HF           //
  //<<<<<<<<<<<<<<<<<<<<<<<<<<<<<<<<<<<//


*** tstart() called on ds1
*** at Tue Sep 14 17:46:18 2021

   => Loading Basis Set <=

    Name: AUG-CC-PVDZ
    Role: ORBITAL
    Keyword: BASIS
    atoms 1-2, 10-11 entry N          line   218 file /theoryfs2/ds/csargent/miniconda3/envs/cle/share/psi4/basis/aug-cc-pvdz.gbs
    atoms 3-6, 12-15 entry H          line    40 file /theoryfs2/ds/csargent/miniconda3/envs/cle/share/psi4/basis/aug-cc-pvdz.gbs
    atoms 7-9, 16-18 entry C          line   182 file /theoryfs2/ds/csargent/miniconda3/envs/cle/share/psi4/basis/aug-cc-pvdz.gbs


         ---------------------------------------------------------
                                   SCF
               by Justin Turney, Rob Parrish, Andy Simmonett
                          and Daniel G. A. Smith
                              RHF Reference
                        6 Threads,   6675 MiB Core
         ---------------------------------------------------------

  ==> Geometry <==

    Molecular point group: c1
    Full point group: C1

    Geometry (in Bohr), charge = 0, multiplicity = 1:

       Center              X                  Y                   Z               Mass
    ------------   -----------------  -----------------  -----------------  -----------------
         N           -4.293096210000    -3.068374310000     5.305162310000    14.003074004430
         N           -2.158473710000    -2.926272960000     1.720374480000    14.003074004430
         H           -0.025455870000    -6.359035750000     2.220464520000     1.007825032230
         H           -2.685669680000    -6.532602410000     6.614459540000     1.007825032230
         H           -4.743884230000    -0.006090060000     2.756159680000     1.007825032230
         H           -1.410455400000    -2.247231470000     0.000000000000     1.007825032230
         C           -1.437379910000    -5.075048480000     2.940658910000    12.000000000000
         C           -2.769007820000    -5.146099160000     5.135228800000    12.000000000000
         C           -3.859550360000    -1.777281980000     3.210934110000    12.000000000000
      Gh(N)           5.998018470000    14.121829910000    27.674885760000    14.003074004430
      Gh(N)           3.863395970000    13.979728550000    31.259673600000    14.003074004430
      Gh(H)           1.730378120000    17.412491340000    30.759583560000     1.007825032230
      Gh(H)           4.390591930000    17.586058000000    26.365588540000     1.007825032230
      Gh(H)           6.448806480000    11.059545650000    30.223888400000     1.007825032230
      Gh(H)           3.115377660000    13.300687060000    32.980048080000     1.007825032230
      Gh(C)           3.142302170000    16.128504080000    30.039389160000    12.000000000000
      Gh(C)           4.473930070000    16.199554760000    27.844819270000    12.000000000000
      Gh(C)           5.564472610000    12.830737570000    29.769113960000    12.000000000000

  Running in c1 symmetry.

  Rotational constants: A =      0.02165  B =      0.00080  C =      0.00078 [cm^-1]
  Rotational constants: A =    649.02973  B =     23.97692  C =     23.30228 [MHz]
  Nuclear repulsion =  164.086695994184396

  Charge       = 0
  Multiplicity = 1
  Electrons    = 36
  Nalpha       = 18
  Nbeta        = 18

  ==> Algorithm <==

  SCF Algorithm Type is DF.
  DIIS enabled.
  MOM disabled.
  Fractional occupation disabled.
  Guess Type is SAD.
  Energy threshold   = 1.00e-10
  Density threshold  = 1.00e-10
  Integral threshold = 1.00e-12

  ==> Primary Basis <==

  Basis Set: AUG-CC-PVDZ
    Blend: AUG-CC-PVDZ
    Number of shells: 130
    Number of basis functions: 302
    Number of Cartesian functions: 322
    Spherical Harmonics?: true
    Max angular momentum: 2

   => Loading Basis Set <=

    Name: (AUG-CC-PVDZ AUX)
    Role: JKFIT
    Keyword: DF_BASIS_SCF
    atoms 1-2, 10-11 entry N          line   212 file /theoryfs2/ds/csargent/miniconda3/envs/cle/share/psi4/basis/aug-cc-pvdz-jkfit.gbs
    atoms 3-6, 12-15 entry H          line    70 file /theoryfs2/ds/csargent/miniconda3/envs/cle/share/psi4/basis/aug-cc-pvdz-jkfit.gbs
    atoms 7-9, 16-18 entry C          line   154 file /theoryfs2/ds/csargent/miniconda3/envs/cle/share/psi4/basis/aug-cc-pvdz-jkfit.gbs

  ==> Integral Setup <==

  ==> DiskDFJK: Density-Fitted J/K Matrices <==

    J tasked:                  Yes
    K tasked:                  Yes
    wK tasked:                  No
    OpenMP threads:              6
    Integrals threads:           6
    Memory [MiB]:             5006
    Algorithm:                Core
    Integral Cache:           LOAD
    Schwarz Cutoff:          1E-12
    Fitting Condition:       1E-10

   => Auxiliary Basis Set <=

  Basis Set: (AUG-CC-PVDZ AUX)
    Blend: AUG-CC-PVDZ-JKFIT
    Number of shells: 376
    Number of basis functions: 1116
    Number of Cartesian functions: 1290
    Spherical Harmonics?: true
    Max angular momentum: 3

  Minimum eigenvalue in the overlap matrix is 2.1836978692E-05.
  Reciprocal condition number of the overlap matrix is 1.8394443026E-06.
    Using symmetric orthogonalization.

  ==> Pre-Iterations <==

  SCF Guess: Superposition of Atomic Densities via on-the-fly atomic UHF (no occupation information).

   -------------------------
    Irrep   Nso     Nmo
   -------------------------
     A        302     302
   -------------------------
    Total     302     302
   -------------------------

  ==> Iterations <==

                           Total Energy        Delta E     RMS |[F,P]|

   @DF-RHF iter SAD:  -224.55857169574287   -2.24559e+02   0.00000e+00
   @DF-RHF iter   1:  -224.69806464837094   -1.39493e-01   1.63067e-03 DIIS
   @DF-RHF iter   2:  -224.80532026725334   -1.07256e-01   9.27384e-04 DIIS
   @DF-RHF iter   3:  -224.84168817132914   -3.63679e-02   1.74019e-04 DIIS
   @DF-RHF iter   4:  -224.84337342341513   -1.68525e-03   7.98972e-05 DIIS
   @DF-RHF iter   5:  -224.84367500412898   -3.01581e-04   1.26452e-05 DIIS
   @DF-RHF iter   6:  -224.84369234116249   -1.73370e-05   5.61871e-06 DIIS
   @DF-RHF iter   7:  -224.84369542923176   -3.08807e-06   2.19503e-06 DIIS
   @DF-RHF iter   8:  -224.84369616114981   -7.31918e-07   7.77587e-07 DIIS
   @DF-RHF iter   9:  -224.84369627194417   -1.10794e-07   1.87961e-07 DIIS
   @DF-RHF iter  10:  -224.84369627748003   -5.53587e-09   7.33125e-08 DIIS
   @DF-RHF iter  11:  -224.84369627830608   -8.26049e-10   3.26918e-08 DIIS
   @DF-RHF iter  12:  -224.84369627845814   -1.52056e-10   9.70884e-09 DIIS
   @DF-RHF iter  13:  -224.84369627847141   -1.32729e-11   3.58840e-09 DIIS
   @DF-RHF iter  14:  -224.84369627847300   -1.59162e-12   1.58275e-09 DIIS
   @DF-RHF iter  15:  -224.84369627847300    0.00000e+00   5.27556e-10 DIIS
   @DF-RHF iter  16:  -224.84369627847343   -4.26326e-13   2.34517e-10 DIIS
   @DF-RHF iter  17:  -224.84369627847363   -1.98952e-13   4.71136e-11 DIIS
  Energy and wave function converged.


  ==> Post-Iterations <==

    Orbital Energies [Eh]
    ---------------------

    Doubly Occupied:

       1A    -15.637071     2A    -15.551216     3A    -11.300916
       4A    -11.263160     5A    -11.245653     6A     -1.352867
       7A     -1.169098     8A     -1.012098     9A     -0.824390
      10A     -0.803731    11A     -0.760666    12A     -0.610096
      13A     -0.603958    14A     -0.601922    15A     -0.570942
      16A     -0.435483    17A     -0.400464    18A     -0.320685

    Virtual:

      19A      0.023491    20A      0.025388    21A      0.041015
      22A      0.041580    23A      0.044438    24A      0.049997
      25A      0.061864    26A      0.068575    27A      0.077540
      28A      0.087103    29A      0.089096    30A      0.098471
      31A      0.101397    32A      0.120831    33A      0.125537
      34A      0.125577    35A      0.125907    36A      0.127758
      37A      0.128204    38A      0.133472    39A      0.133773
      40A      0.135133    41A      0.138983    42A      0.140942
      43A      0.156500    44A      0.157552    45A      0.158699
      46A      0.171988    47A      0.178189    48A      0.187224
      49A      0.193094    50A      0.208751    51A      0.210315
      52A      0.211559    53A      0.213493    54A      0.220268
      55A      0.221224    56A      0.223525    57A      0.232359
      58A      0.234010    59A      0.241408    60A      0.261605
      61A      0.267803    62A      0.273062    63A      0.277911
      64A      0.300311    65A      0.301746    66A      0.307367
      67A      0.314442    68A      0.320179    69A      0.338197
      70A      0.361163    71A      0.361488    72A      0.370745
      73A      0.376393    74A      0.379800    75A      0.388291
      76A      0.394410    77A      0.397097    78A      0.417031
      79A      0.428290    80A      0.429000    81A      0.436125
      82A      0.441332    83A      0.449999    84A      0.452059
      85A      0.453097    86A      0.466350    87A      0.469077
      88A      0.481229    89A      0.481992    90A      0.486283
      91A      0.488151    92A      0.518278    93A      0.521512
      94A      0.536934    95A      0.539230    96A      0.544055
      97A      0.551710    98A      0.556382    99A      0.556807
     100A      0.568280   101A      0.576474   102A      0.580325
     103A      0.588535   104A      0.594249   105A      0.598939
     106A      0.607380   107A      0.613055   108A      0.616080
     109A      0.619308   110A      0.636538   111A      0.640712
     112A      0.652504   113A      0.669282   114A      0.671337
     115A      0.678185   116A      0.678593   117A      0.683874
     118A      0.684715   119A      0.712145   120A      0.714698
     121A      0.725758   122A      0.737054   123A      0.741238
     124A      0.757119   125A      0.762698   126A      0.767400
     127A      0.790929   128A      0.793606   129A      0.799212
     130A      0.809747   131A      0.811452   132A      0.813474
     133A      0.824207   134A      0.837554   135A      0.860397
     136A      0.860564   137A      0.871425   138A      0.885765
     139A      0.887517   140A      0.889823   141A      0.910704
     142A      0.920635   143A      0.927888   144A      0.954351
     145A      0.969715   146A      0.976964   147A      0.992823
     148A      0.998360   149A      1.010706   150A      1.016420
     151A      1.017404   152A      1.030676   153A      1.059961
     154A      1.077353   155A      1.079616   156A      1.084552
     157A      1.104641   158A      1.116988   159A      1.126983
     160A      1.133473   161A      1.140497   162A      1.149565
     163A      1.167170   164A      1.171862   165A      1.175088
     166A      1.198568   167A      1.211591   168A      1.217445
     169A      1.260721   170A      1.279024   171A      1.291667
     172A      1.297997   173A      1.302539   174A      1.313564
     175A      1.319116   176A      1.348580   177A      1.385028
     178A      1.385103   179A      1.398145   180A      1.451143
     181A      1.495934   182A      1.503288   183A      1.516853
     184A      1.518410   185A      1.542345   186A      1.574127
     187A      1.574285   188A      1.596381   189A      1.652159
     190A      1.661945   191A      1.671505   192A      1.705286
     193A      1.724477   194A      1.782643   195A      1.799067
     196A      1.807063   197A      1.864950   198A      1.881477
     199A      1.924391   200A      1.964987   201A      2.022005
     202A      2.025429   203A      2.040676   204A      2.072981
     205A      2.102105   206A      2.107054   207A      2.120494
     208A      2.126759   209A      2.132404   210A      2.135965
     211A      2.150527   212A      2.168670   213A      2.178815
     214A      2.186094   215A      2.230775   216A      2.253784
     217A      2.267082   218A      2.275963   219A      2.300924
     220A      2.309717   221A      2.328247   222A      2.332072
     223A      2.377952   224A      2.406712   225A      2.414425
     226A      2.417758   227A      2.456815   228A      2.471931
     229A      2.495013   230A      2.496919   231A      2.514025
     232A      2.527006   233A      2.545345   234A      2.546586
     235A      2.577961   236A      2.585743   237A      2.600985
     238A      2.633765   239A      2.697341   240A      2.734093
     241A      2.747025   242A      2.767089   243A      2.791559
     244A      2.794149   245A      2.803444   246A      2.829970
     247A      2.837641   248A      2.867213   249A      2.896988
     250A      2.934412   251A      2.950572   252A      2.952738
     253A      2.980862   254A      3.044729   255A      3.051201
     256A      3.069910   257A      3.077394   258A      3.133143
     259A      3.160868   260A      3.184165   261A      3.199163
     262A      3.208795   263A      3.214596   264A      3.334816
     265A      3.342065   266A      3.354572   267A      3.355985
     268A      3.364101   269A      3.459905   270A      3.495707
     271A      3.518552   272A      3.570833   273A      3.610168
     274A      3.708483   275A      3.727958   276A      3.768294
     277A      3.779621   278A      3.799444   279A      3.859169
     280A      3.871986   281A      4.005130   282A      4.109022
     283A      4.214020   284A      4.637978   285A      4.640071
     286A      4.697212   287A      4.773073   288A      4.881336
     289A      5.022669   290A      5.255952   291A      5.374447
     292A      5.496093   293A      5.611612   294A      5.717542
     295A      5.885196   296A      6.090961   297A      6.199438
     298A     18.256702   299A     18.591443   300A     19.301660
     301A     25.313209   302A     25.454541

    Final Occupation by Irrep:
              A
    DOCC [    18 ]

  @DF-RHF Final Energy:  -224.84369627847363

   => Energetics <=

    Nuclear Repulsion Energy =            164.0866959941843959
    One-Electron Energy =                -628.9319563026484730
    Two-Electron Energy =                 240.0015640299904192
    Total Energy =                       -224.8436962784736295

Computation Completed


Properties will be evaluated at   0.000000,   0.000000,   0.000000 [a0]

Properties computed using the SCF density matrix

  Nuclear Dipole Moment: [e a0]
     X:  -102.4221      Y:  -129.0981      Z:   128.4908

  Electronic Dipole Moment: [e a0]
     X:   103.2259      Y:   129.2613      Z:  -129.8232

  Dipole Moment: [e a0]
     X:     0.8038      Y:     0.1633      Z:    -1.3324     Total:     1.5646

  Dipole Moment: [D]
     X:     2.0431      Y:     0.4150      Z:    -3.3867     Total:     3.9769


*** tstop() called on ds1 at Tue Sep 14 17:46:22 2021
Module time:
	user time   =      16.13 seconds =       0.27 minutes
	system time =       0.35 seconds =       0.01 minutes
	total time  =          4 seconds =       0.07 minutes
Total time:
	user time   =      38.63 seconds =       0.64 minutes
	system time =       0.93 seconds =       0.02 minutes
	total time  =          8 seconds =       0.13 minutes

  //>>>>>>>>>>>>>>>>>>>>>>>>>>>>>>>>>>>//
  //            Monomer B HF           //
  //<<<<<<<<<<<<<<<<<<<<<<<<<<<<<<<<<<<//


*** tstart() called on ds1
*** at Tue Sep 14 17:46:22 2021

   => Loading Basis Set <=

    Name: AUG-CC-PVDZ
    Role: ORBITAL
    Keyword: BASIS
    atoms 1-2, 10-11 entry N          line   218 file /theoryfs2/ds/csargent/miniconda3/envs/cle/share/psi4/basis/aug-cc-pvdz.gbs
    atoms 3-6, 12-15 entry H          line    40 file /theoryfs2/ds/csargent/miniconda3/envs/cle/share/psi4/basis/aug-cc-pvdz.gbs
    atoms 7-9, 16-18 entry C          line   182 file /theoryfs2/ds/csargent/miniconda3/envs/cle/share/psi4/basis/aug-cc-pvdz.gbs


         ---------------------------------------------------------
                                   SCF
               by Justin Turney, Rob Parrish, Andy Simmonett
                          and Daniel G. A. Smith
                              RHF Reference
                        6 Threads,   6675 MiB Core
         ---------------------------------------------------------

  ==> Geometry <==

    Molecular point group: c1
    Full point group: C1

    Geometry (in Bohr), charge = 0, multiplicity = 1:

       Center              X                  Y                   Z               Mass
    ------------   -----------------  -----------------  -----------------  -----------------
      Gh(N)          -4.293096210000    -3.068374310000     5.305162310000    14.003074004430
      Gh(N)          -2.158473710000    -2.926272960000     1.720374480000    14.003074004430
      Gh(H)          -0.025455870000    -6.359035750000     2.220464520000     1.007825032230
      Gh(H)          -2.685669680000    -6.532602410000     6.614459540000     1.007825032230
      Gh(H)          -4.743884230000    -0.006090060000     2.756159680000     1.007825032230
      Gh(H)          -1.410455400000    -2.247231470000     0.000000000000     1.007825032230
      Gh(C)          -1.437379910000    -5.075048480000     2.940658910000    12.000000000000
      Gh(C)          -2.769007820000    -5.146099160000     5.135228800000    12.000000000000
      Gh(C)          -3.859550360000    -1.777281980000     3.210934110000    12.000000000000
         N            5.998018470000    14.121829910000    27.674885760000    14.003074004430
         N            3.863395970000    13.979728550000    31.259673600000    14.003074004430
         H            1.730378120000    17.412491340000    30.759583560000     1.007825032230
         H            4.390591930000    17.586058000000    26.365588540000     1.007825032230
         H            6.448806480000    11.059545650000    30.223888400000     1.007825032230
         H            3.115377660000    13.300687060000    32.980048080000     1.007825032230
         C            3.142302170000    16.128504080000    30.039389160000    12.000000000000
         C            4.473930070000    16.199554760000    27.844819270000    12.000000000000
         C            5.564472610000    12.830737570000    29.769113960000    12.000000000000

  Running in c1 symmetry.

  Rotational constants: A =      0.02165  B =      0.00080  C =      0.00078 [cm^-1]
  Rotational constants: A =    649.02973  B =     23.97692  C =     23.30228 [MHz]
  Nuclear repulsion =  164.086695784293852

  Charge       = 0
  Multiplicity = 1
  Electrons    = 36
  Nalpha       = 18
  Nbeta        = 18

  ==> Algorithm <==

  SCF Algorithm Type is DF.
  DIIS enabled.
  MOM disabled.
  Fractional occupation disabled.
  Guess Type is SAD.
  Energy threshold   = 1.00e-10
  Density threshold  = 1.00e-10
  Integral threshold = 1.00e-12

  ==> Primary Basis <==

  Basis Set: AUG-CC-PVDZ
    Blend: AUG-CC-PVDZ
    Number of shells: 130
    Number of basis functions: 302
    Number of Cartesian functions: 322
    Spherical Harmonics?: true
    Max angular momentum: 2

   => Loading Basis Set <=

    Name: (AUG-CC-PVDZ AUX)
    Role: JKFIT
    Keyword: DF_BASIS_SCF
    atoms 1-2, 10-11 entry N          line   212 file /theoryfs2/ds/csargent/miniconda3/envs/cle/share/psi4/basis/aug-cc-pvdz-jkfit.gbs
    atoms 3-6, 12-15 entry H          line    70 file /theoryfs2/ds/csargent/miniconda3/envs/cle/share/psi4/basis/aug-cc-pvdz-jkfit.gbs
    atoms 7-9, 16-18 entry C          line   154 file /theoryfs2/ds/csargent/miniconda3/envs/cle/share/psi4/basis/aug-cc-pvdz-jkfit.gbs

  ==> Integral Setup <==

  ==> DiskDFJK: Density-Fitted J/K Matrices <==

    J tasked:                  Yes
    K tasked:                  Yes
    wK tasked:                  No
    OpenMP threads:              6
    Integrals threads:           6
    Memory [MiB]:             5006
    Algorithm:                Core
    Integral Cache:           LOAD
    Schwarz Cutoff:          1E-12
    Fitting Condition:       1E-10

   => Auxiliary Basis Set <=

  Basis Set: (AUG-CC-PVDZ AUX)
    Blend: AUG-CC-PVDZ-JKFIT
    Number of shells: 376
    Number of basis functions: 1116
    Number of Cartesian functions: 1290
    Spherical Harmonics?: true
    Max angular momentum: 3

  Minimum eigenvalue in the overlap matrix is 2.1836978692E-05.
  Reciprocal condition number of the overlap matrix is 1.8394443026E-06.
    Using symmetric orthogonalization.

  ==> Pre-Iterations <==

  SCF Guess: Superposition of Atomic Densities via on-the-fly atomic UHF (no occupation information).

   -------------------------
    Irrep   Nso     Nmo
   -------------------------
     A        302     302
   -------------------------
    Total     302     302
   -------------------------

  ==> Iterations <==

                           Total Energy        Delta E     RMS |[F,P]|

   @DF-RHF iter SAD:  -224.55857167542433   -2.24559e+02   0.00000e+00
   @DF-RHF iter   1:  -224.69806464861517   -1.39493e-01   1.63067e-03 DIIS
   @DF-RHF iter   2:  -224.80532026702997   -1.07256e-01   9.27384e-04 DIIS
   @DF-RHF iter   3:  -224.84168817109799   -3.63679e-02   1.74019e-04 DIIS
   @DF-RHF iter   4:  -224.84337342320637   -1.68525e-03   7.98972e-05 DIIS
   @DF-RHF iter   5:  -224.84367500392577   -3.01581e-04   1.26452e-05 DIIS
   @DF-RHF iter   6:  -224.84369234095922   -1.73370e-05   5.61871e-06 DIIS
   @DF-RHF iter   7:  -224.84369542902866   -3.08807e-06   2.19503e-06 DIIS
   @DF-RHF iter   8:  -224.84369616094710   -7.31918e-07   7.77587e-07 DIIS
   @DF-RHF iter   9:  -224.84369627174101   -1.10794e-07   1.87961e-07 DIIS
   @DF-RHF iter  10:  -224.84369627727685   -5.53584e-09   7.33125e-08 DIIS
   @DF-RHF iter  11:  -224.84369627810310   -8.26248e-10   3.26918e-08 DIIS
   @DF-RHF iter  12:  -224.84369627825538   -1.52284e-10   9.70884e-09 DIIS
   @DF-RHF iter  13:  -224.84369627826811   -1.27329e-11   3.58840e-09 DIIS
   @DF-RHF iter  14:  -224.84369627826996   -1.84741e-12   1.58275e-09 DIIS
   @DF-RHF iter  15:  -224.84369627826993    2.84217e-14   5.27556e-10 DIIS
   @DF-RHF iter  16:  -224.84369627827050   -5.68434e-13   2.34517e-10 DIIS
   @DF-RHF iter  17:  -224.84369627827044    5.68434e-14   4.71140e-11 DIIS
  Energy and wave function converged.


  ==> Post-Iterations <==

    Orbital Energies [Eh]
    ---------------------

    Doubly Occupied:

       1A    -15.637071     2A    -15.551216     3A    -11.300916
       4A    -11.263160     5A    -11.245653     6A     -1.352867
       7A     -1.169098     8A     -1.012098     9A     -0.824390
      10A     -0.803731    11A     -0.760666    12A     -0.610096
      13A     -0.603958    14A     -0.601922    15A     -0.570942
      16A     -0.435483    17A     -0.400464    18A     -0.320685

    Virtual:

      19A      0.023491    20A      0.025388    21A      0.041015
      22A      0.041580    23A      0.044438    24A      0.049997
      25A      0.061864    26A      0.068575    27A      0.077540
      28A      0.087103    29A      0.089096    30A      0.098471
      31A      0.101397    32A      0.120831    33A      0.125537
      34A      0.125577    35A      0.125907    36A      0.127758
      37A      0.128204    38A      0.133472    39A      0.133773
      40A      0.135133    41A      0.138983    42A      0.140942
      43A      0.156500    44A      0.157552    45A      0.158699
      46A      0.171988    47A      0.178189    48A      0.187224
      49A      0.193094    50A      0.208751    51A      0.210315
      52A      0.211559    53A      0.213493    54A      0.220268
      55A      0.221224    56A      0.223525    57A      0.232359
      58A      0.234010    59A      0.241408    60A      0.261605
      61A      0.267803    62A      0.273062    63A      0.277911
      64A      0.300311    65A      0.301746    66A      0.307367
      67A      0.314442    68A      0.320179    69A      0.338197
      70A      0.361163    71A      0.361488    72A      0.370745
      73A      0.376393    74A      0.379800    75A      0.388291
      76A      0.394410    77A      0.397097    78A      0.417031
      79A      0.428290    80A      0.429000    81A      0.436125
      82A      0.441332    83A      0.449999    84A      0.452059
      85A      0.453097    86A      0.466350    87A      0.469077
      88A      0.481229    89A      0.481992    90A      0.486283
      91A      0.488151    92A      0.518278    93A      0.521512
      94A      0.536934    95A      0.539230    96A      0.544055
      97A      0.551710    98A      0.556382    99A      0.556807
     100A      0.568280   101A      0.576474   102A      0.580325
     103A      0.588535   104A      0.594249   105A      0.598939
     106A      0.607380   107A      0.613055   108A      0.616080
     109A      0.619308   110A      0.636538   111A      0.640712
     112A      0.652504   113A      0.669282   114A      0.671337
     115A      0.678185   116A      0.678593   117A      0.683874
     118A      0.684715   119A      0.712145   120A      0.714698
     121A      0.725758   122A      0.737054   123A      0.741238
     124A      0.757119   125A      0.762698   126A      0.767400
     127A      0.790929   128A      0.793606   129A      0.799212
     130A      0.809747   131A      0.811452   132A      0.813474
     133A      0.824207   134A      0.837554   135A      0.860398
     136A      0.860564   137A      0.871425   138A      0.885765
     139A      0.887517   140A      0.889823   141A      0.910704
     142A      0.920635   143A      0.927888   144A      0.954351
     145A      0.969715   146A      0.976964   147A      0.992823
     148A      0.998360   149A      1.010706   150A      1.016420
     151A      1.017404   152A      1.030676   153A      1.059961
     154A      1.077353   155A      1.079616   156A      1.084552
     157A      1.104641   158A      1.116988   159A      1.126983
     160A      1.133473   161A      1.140497   162A      1.149565
     163A      1.167170   164A      1.171862   165A      1.175088
     166A      1.198568   167A      1.211591   168A      1.217445
     169A      1.260721   170A      1.279024   171A      1.291667
     172A      1.297997   173A      1.302539   174A      1.313564
     175A      1.319116   176A      1.348580   177A      1.385028
     178A      1.385103   179A      1.398145   180A      1.451143
     181A      1.495934   182A      1.503288   183A      1.516853
     184A      1.518410   185A      1.542345   186A      1.574127
     187A      1.574285   188A      1.596381   189A      1.652159
     190A      1.661945   191A      1.671505   192A      1.705286
     193A      1.724477   194A      1.782643   195A      1.799067
     196A      1.807063   197A      1.864950   198A      1.881477
     199A      1.924391   200A      1.964987   201A      2.022005
     202A      2.025429   203A      2.040676   204A      2.072981
     205A      2.102105   206A      2.107054   207A      2.120494
     208A      2.126759   209A      2.132404   210A      2.135965
     211A      2.150527   212A      2.168670   213A      2.178815
     214A      2.186094   215A      2.230775   216A      2.253784
     217A      2.267082   218A      2.275963   219A      2.300924
     220A      2.309717   221A      2.328247   222A      2.332072
     223A      2.377952   224A      2.406712   225A      2.414425
     226A      2.417758   227A      2.456815   228A      2.471931
     229A      2.495013   230A      2.496919   231A      2.514025
     232A      2.527006   233A      2.545345   234A      2.546586
     235A      2.577961   236A      2.585743   237A      2.600985
     238A      2.633765   239A      2.697341   240A      2.734093
     241A      2.747025   242A      2.767089   243A      2.791559
     244A      2.794149   245A      2.803444   246A      2.829970
     247A      2.837641   248A      2.867213   249A      2.896988
     250A      2.934412   251A      2.950572   252A      2.952738
     253A      2.980862   254A      3.044729   255A      3.051201
     256A      3.069910   257A      3.077394   258A      3.133143
     259A      3.160868   260A      3.184165   261A      3.199163
     262A      3.208795   263A      3.214596   264A      3.334816
     265A      3.342065   266A      3.354572   267A      3.355985
     268A      3.364101   269A      3.459905   270A      3.495707
     271A      3.518552   272A      3.570833   273A      3.610168
     274A      3.708483   275A      3.727958   276A      3.768294
     277A      3.779621   278A      3.799444   279A      3.859169
     280A      3.871986   281A      4.005130   282A      4.109022
     283A      4.214020   284A      4.637978   285A      4.640071
     286A      4.697212   287A      4.773073   288A      4.881336
     289A      5.022669   290A      5.255952   291A      5.374447
     292A      5.496093   293A      5.611612   294A      5.717542
     295A      5.885196   296A      6.090961   297A      6.199438
     298A     18.256702   299A     18.591443   300A     19.301660
     301A     25.313209   302A     25.454541

    Final Occupation by Irrep:
              A
    DOCC [    18 ]

  @DF-RHF Final Energy:  -224.84369627827044

   => Energetics <=

    Nuclear Repulsion Energy =            164.0866957842938518
    One-Electron Energy =                -628.9319558907400278
    Two-Electron Energy =                 240.0015638281757333
    Total Energy =                       -224.8436962782704427

Computation Completed


Properties will be evaluated at   0.000000,   0.000000,   0.000000 [a0]

Properties computed using the SCF density matrix

  Nuclear Dipole Moment: [e a0]
     X:   163.7993      Y:   527.0225      Z:  1058.7910

  Electronic Dipole Moment: [e a0]
     X:  -164.6031      Y:  -527.1857      Z: -1057.4585

  Dipole Moment: [e a0]
     X:    -0.8038      Y:    -0.1633      Z:     1.3324     Total:     1.5646

  Dipole Moment: [D]
     X:    -2.0431      Y:    -0.4150      Z:     3.3867     Total:     3.9769


*** tstop() called on ds1 at Tue Sep 14 17:46:26 2021
Module time:
	user time   =      16.23 seconds =       0.27 minutes
	system time =       0.36 seconds =       0.01 minutes
	total time  =          4 seconds =       0.07 minutes
Total time:
	user time   =      55.05 seconds =       0.92 minutes
	system time =       1.29 seconds =       0.02 minutes
	total time  =         12 seconds =       0.20 minutes
  Constructing Basis Sets for SAPT...

   => Loading Basis Set <=

    Name: (AUG-CC-PVDZ AUX)
    Role: RIFIT
    Keyword: DF_BASIS_SAPT
    atoms 1-2, 10-11 entry N          line   158 file /theoryfs2/ds/csargent/miniconda3/envs/cle/share/psi4/basis/aug-cc-pvdz-ri.gbs
    atoms 3-6, 12-15 entry H          line    30 file /theoryfs2/ds/csargent/miniconda3/envs/cle/share/psi4/basis/aug-cc-pvdz-ri.gbs
    atoms 7-9, 16-18 entry C          line   112 file /theoryfs2/ds/csargent/miniconda3/envs/cle/share/psi4/basis/aug-cc-pvdz-ri.gbs


  //>>>>>>>>>>>>>>>>>>>>>>>>>>>>>>>>>>>//
  //               SAPT0               //
  //<<<<<<<<<<<<<<<<<<<<<<<<<<<<<<<<<<<//


*** tstart() called on ds1
*** at Tue Sep 14 17:46:26 2021

        SAPT0
    Ed Hohenstein
     6 June 2009

      Orbital Information
  --------------------------
    NSO        =       302
    NMO        =       302
    NRI        =       904
    NOCC A     =        18
    NOCC B     =        18
    FOCC A     =         5
    FOCC B     =         5
    NVIR A     =       284
    NVIR B     =       284

    Elst10,r            =     0.000006089218 [Eh]
    Exch10              =     0.000000000000 [Eh]
    Exch10 (S^2)        =     0.000000000000 [Eh]

    Iter     Energy [mEh]          dE [mEh]         Residual      Time [s]
       1      -0.00007760       0.000077596       0.080153593             0
       2      -0.00007032      -0.000007280       0.016693205             0
       3      -0.00007556       0.000005243       0.007541616             0
       4      -0.00007653       0.000000972       0.001542371             0
       5      -0.00007632      -0.000000212       0.000791249             0
       6      -0.00007629      -0.000000034       0.000301118             0
       7      -0.00007631       0.000000025       0.000103135             1
       8      -0.00007631      -0.000000000       0.000040389             1
       9      -0.00007631      -0.000000001       0.000010578             1
      10      -0.00007631      -0.000000000       0.000003059             1
      11      -0.00007631       0.000000000       0.000001040             1
      12      -0.00007631      -0.000000000       0.000000495             1

    CHF Iterations converged


    Iter     Energy [mEh]          dE [mEh]         Residual      Time [s]
       1      -0.00007760       0.000077596       0.080153593             0
       2      -0.00007032      -0.000007280       0.016693205             0
       3      -0.00007556       0.000005243       0.007541616             1
       4      -0.00007653       0.000000972       0.001542371             1
       5      -0.00007632      -0.000000212       0.000791249             1
       6      -0.00007629      -0.000000034       0.000301118             1
       7      -0.00007631       0.000000025       0.000103135             1
       8      -0.00007631      -0.000000000       0.000040389             1
       9      -0.00007631      -0.000000001       0.000010578             1
      10      -0.00007631      -0.000000000       0.000003059             1
      11      -0.00007631       0.000000000       0.000001040             2
      12      -0.00007631      -0.000000000       0.000000495             2

    CHF Iterations converged

    Ind20,r (A<-B)      =    -0.000000076309 [Eh]
    Ind20,r (B<-A)      =    -0.000000076309 [Eh]
    Ind20,r             =    -0.000000152619 [Eh]
    Exch-Ind20,r (A<-B) =     0.000000000000 [Eh]
    Exch-Ind20,r (B<-A) =     0.000000000000 [Eh]
    Exch-Ind20,r        =     0.000000000000 [Eh]
    Disp20              =    -0.000000948475 [Eh]
    Disp20 (SS)         =    -0.000000474238 [Eh]
    Disp20 (OS)         =    -0.000000474238 [Eh]
    Exch-Disp20         =     0.000000000000 [Eh]
    Exch-Disp20 (SS)    =     0.000000000000 [Eh]
    Exch-Disp20 (OS)    =     0.000000000000 [Eh]

    SAPT Results
  --------------------------------------------------------------------------------------------------------
    Electrostatics                  0.00608922 [mEh]       0.00382104 [kcal/mol]       0.01598724 [kJ/mol]
      Elst10,r                      0.00608922 [mEh]       0.00382104 [kcal/mol]       0.01598724 [kJ/mol]

    Exchange                        0.00000000 [mEh]       0.00000000 [kcal/mol]       0.00000000 [kJ/mol]
      Exch10                        0.00000000 [mEh]       0.00000000 [kcal/mol]       0.00000000 [kJ/mol]
      Exch10(S^2)                   0.00000000 [mEh]       0.00000000 [kcal/mol]       0.00000000 [kJ/mol]

    Induction                      -0.00014404 [mEh]      -0.00009039 [kcal/mol]      -0.00037818 [kJ/mol]
      Ind20,r                      -0.00015262 [mEh]      -0.00009577 [kcal/mol]      -0.00040070 [kJ/mol]
      Exch-Ind20,r                  0.00000000 [mEh]       0.00000000 [kcal/mol]       0.00000000 [kJ/mol]
      delta HF,r (2)                0.00000858 [mEh]       0.00000538 [kcal/mol]       0.00002252 [kJ/mol]

    Dispersion                     -0.00094848 [mEh]      -0.00059518 [kcal/mol]      -0.00249022 [kJ/mol]
      Disp20                       -0.00094848 [mEh]      -0.00059518 [kcal/mol]      -0.00249022 [kJ/mol]
      Exch-Disp20                   0.00000000 [mEh]       0.00000000 [kcal/mol]       0.00000000 [kJ/mol]
      Disp20 (SS)                  -0.00047424 [mEh]      -0.00029759 [kcal/mol]      -0.00124511 [kJ/mol]
      Disp20 (OS)                  -0.00047424 [mEh]      -0.00029759 [kcal/mol]      -0.00124511 [kJ/mol]
      Exch-Disp20 (SS)              0.00000000 [mEh]       0.00000000 [kcal/mol]       0.00000000 [kJ/mol]
      Exch-Disp20 (OS)              0.00000000 [mEh]       0.00000000 [kcal/mol]       0.00000000 [kJ/mol]

  Total HF                          0.00594518 [mEh]       0.00373065 [kcal/mol]       0.01560906 [kJ/mol]
  Total SAPT0                       0.00499670 [mEh]       0.00313548 [kcal/mol]       0.01311884 [kJ/mol]

  Special recipe for scaled SAPT0 (see Manual):
    Electrostatics sSAPT0           0.00608922 [mEh]       0.00382104 [kcal/mol]       0.01598724 [kJ/mol]
    Exchange sSAPT0                 0.00000000 [mEh]       0.00000000 [kcal/mol]       0.00000000 [kJ/mol]
    Induction sSAPT0               -0.00014404 [mEh]      -0.00009039 [kcal/mol]      -0.00037818 [kJ/mol]
    Dispersion sSAPT0              -0.00094848 [mEh]      -0.00059518 [kcal/mol]      -0.00249022 [kJ/mol]
  Total sSAPT0                      0.00499670 [mEh]       0.00313548 [kcal/mol]       0.01311884 [kJ/mol]
  --------------------------------------------------------------------------------------------------------

*** tstop() called on ds1 at Tue Sep 14 17:46:35 2021
Module time:
	user time   =      45.22 seconds =       0.75 minutes
	system time =       3.92 seconds =       0.07 minutes
	total time  =          9 seconds =       0.15 minutes
Total time:
	user time   =     100.98 seconds =       1.68 minutes
	system time =       5.24 seconds =       0.09 minutes
	total time  =         21 seconds =       0.35 minutes


Warning! sapt0 does not have an associated derived wavefunction.The returned wavefunction is the dimer SCF wavefunction.


    Psi4 stopped on: Tuesday, 14 September 2021 05:46PM
    Psi4 wall time for execution: 0:00:21.61

*** Psi4 exiting successfully. Buy a developer a beer!
