
    -----------------------------------------------------------------------
          Psi4: An Open-Source Ab Initio Electronic Structure Package
                               Psi4 1.4rc3

                         Git: Rev {HEAD} 080dba6


    D. G. A. Smith, L. A. Burns, A. C. Simmonett, R. M. Parrish,
    M. C. Schieber, R. Galvelis, P. Kraus, H. Kruse, R. Di Remigio,
    A. Alenaizan, A. M. James, S. Lehtola, J. P. Misiewicz, M. Scheurer,
    R. A. Shaw, J. B. Schriber, Y. Xie, Z. L. Glick, D. A. Sirianni,
    J. S. O'Brien, J. M. Waldrop, A. Kumar, E. G. Hohenstein,
    B. P. Pritchard, B. R. Brooks, H. F. Schaefer III, A. Yu. Sokolov,
    K. Patkowski, A. E. DePrince III, U. Bozkaya, R. A. King,
    F. A. Evangelista, J. M. Turney, T. D. Crawford, C. D. Sherrill,
    J. Chem. Phys. 152(18) 184108 (2020). https://doi.org/10.1063/5.0006002

                            Additional Code Authors
    E. T. Seidl, C. L. Janssen, E. F. Valeev, M. L. Leininger,
    J. F. Gonthier, R. M. Richard, H. R. McAlexander, M. Saitow, X. Wang,
    P. Verma, and M. H. Lechner

             Previous Authors, Complete List of Code Contributors,
                       and Citations for Specific Modules
    https://github.com/psi4/psi4/blob/master/codemeta.json
    https://github.com/psi4/psi4/graphs/contributors
    http://psicode.org/psi4manual/master/introduction.html#citing-psifour

    -----------------------------------------------------------------------


    Psi4 started on: Tuesday, 14 September 2021 04:55PM

    Process ID: 1590
    Host:       ds1
    PSIDATADIR: /theoryfs2/ds/csargent/miniconda3/envs/cle/share/psi4
    Memory:     500.0 MiB
    Threads:    6

  ==> Input File <==

--------------------------------------------------------------------------
# PSI4 file produced by CrystaLattE

# Generated from:               imidazole.xyz
# Psithon input for N-mer:      2mer-0+177
# Number of atoms per monomer:  [9, 9]
# Number of replicas:           2
# COM priority:                 2.210790098303e-05
# Minimum COM separations:      18.855
# Separation priority:          4.142212262601e-05
# Minimum monomer separations:  15.294
# Cutoff priority:              1.433209901974e-06
# Nuclear repulsion energy:     364.59837988992894

memory 7 GB

molecule Dimer_0_177 {
  N           -4.29309621      -3.06837431       5.30516231
  N           -2.15847371      -2.92627296       1.72037448
  H           -0.02545587      -6.35903575       2.22046452
  H           -2.68566968      -6.53260241       6.61445954
  H           -4.74388423      -0.00609006       2.75615968
  H           -1.41045540      -2.24723147       0.00000000
  C           -1.43737991      -5.07504848       2.94065891
  C           -2.76900782      -5.14609916       5.13522880
  C           -3.85955036      -1.77728198       3.21093411
--
  N            4.67127568      27.38191658     -10.87898141
  N            6.80589818      27.52401794     -14.46376924
  H            8.93891602      24.09125515     -13.96367920
  H            6.27870221      23.91768849      -9.56968418
  H            4.22048766      30.44420084     -13.42798405
  H            7.55391648      28.20305943     -16.18414372
  C            7.52699198      25.37524241     -13.24348481
  C            6.19536407      25.30419173     -11.04891492
  C            5.10482153      28.67300892     -12.97320961
units = au
no_com
no_reorient
}

set {
  e_convergence 10
  d_convergence 10
  scf_type df
  mp2_type df
  cc_type df
  freeze_core true
}

energy('sapt0/aug-cc-pvdz')

--------------------------------------------------------------------------

  Memory set to   6.519 GiB by Python driver.

Scratch directory: /scratch/csargent/psi4.31446.79897/

Scratch directory: /scratch/csargent/psi4.31446.79897/

  //>>>>>>>>>>>>>>>>>>>>>>>>>>>>>>>>>>>//
  //              Dimer HF             //
  //<<<<<<<<<<<<<<<<<<<<<<<<<<<<<<<<<<<//


*** tstart() called on ds1
*** at Tue Sep 14 16:55:08 2021

   => Loading Basis Set <=

    Name: AUG-CC-PVDZ
    Role: ORBITAL
    Keyword: BASIS
    atoms 1-2, 10-11 entry N          line   218 file /theoryfs2/ds/csargent/miniconda3/envs/cle/share/psi4/basis/aug-cc-pvdz.gbs
    atoms 3-6, 12-15 entry H          line    40 file /theoryfs2/ds/csargent/miniconda3/envs/cle/share/psi4/basis/aug-cc-pvdz.gbs
    atoms 7-9, 16-18 entry C          line   182 file /theoryfs2/ds/csargent/miniconda3/envs/cle/share/psi4/basis/aug-cc-pvdz.gbs


         ---------------------------------------------------------
                                   SCF
               by Justin Turney, Rob Parrish, Andy Simmonett
                          and Daniel G. A. Smith
                              RHF Reference
                        6 Threads,   6675 MiB Core
         ---------------------------------------------------------

  ==> Geometry <==

    Molecular point group: c1
    Full point group: C1

    Geometry (in Bohr), charge = 0, multiplicity = 1:

       Center              X                  Y                   Z               Mass
    ------------   -----------------  -----------------  -----------------  -----------------
         N           -4.293096210000    -3.068374310000     5.305162310000    14.003074004430
         N           -2.158473710000    -2.926272960000     1.720374480000    14.003074004430
         H           -0.025455870000    -6.359035750000     2.220464520000     1.007825032230
         H           -2.685669680000    -6.532602410000     6.614459540000     1.007825032230
         H           -4.743884230000    -0.006090060000     2.756159680000     1.007825032230
         H           -1.410455400000    -2.247231470000     0.000000000000     1.007825032230
         C           -1.437379910000    -5.075048480000     2.940658910000    12.000000000000
         C           -2.769007820000    -5.146099160000     5.135228800000    12.000000000000
         C           -3.859550360000    -1.777281980000     3.210934110000    12.000000000000
         N            4.671275680000    27.381916580000   -10.878981410000    14.003074004430
         N            6.805898180000    27.524017940000   -14.463769240000    14.003074004430
         H            8.938916020000    24.091255150000   -13.963679200000     1.007825032230
         H            6.278702210000    23.917688490000    -9.569684180000     1.007825032230
         H            4.220487660000    30.444200840000   -13.427984050000     1.007825032230
         H            7.553916480000    28.203059430000   -16.184143720000     1.007825032230
         C            7.526991980000    25.375242410000   -13.243484810000    12.000000000000
         C            6.195364070000    25.304191730000   -11.048914920000    12.000000000000
         C            5.104821530000    28.673008920000   -12.973209610000    12.000000000000

  Running in c1 symmetry.

  Rotational constants: A =      0.06954  B =      0.00093  C =      0.00092 [cm^-1]
  Rotational constants: A =   2084.90300  B =     27.90187  C =     27.58438 [MHz]
  Nuclear repulsion =  364.598379909117000

  Charge       = 0
  Multiplicity = 1
  Electrons    = 72
  Nalpha       = 36
  Nbeta        = 36

  ==> Algorithm <==

  SCF Algorithm Type is DF.
  DIIS enabled.
  MOM disabled.
  Fractional occupation disabled.
  Guess Type is SAD.
  Energy threshold   = 1.00e-10
  Density threshold  = 1.00e-10
  Integral threshold = 1.00e-12

  ==> Primary Basis <==

  Basis Set: AUG-CC-PVDZ
    Blend: AUG-CC-PVDZ
    Number of shells: 130
    Number of basis functions: 302
    Number of Cartesian functions: 322
    Spherical Harmonics?: true
    Max angular momentum: 2

   => Loading Basis Set <=

    Name: (AUG-CC-PVDZ AUX)
    Role: JKFIT
    Keyword: DF_BASIS_SCF
    atoms 1-2, 10-11 entry N          line   212 file /theoryfs2/ds/csargent/miniconda3/envs/cle/share/psi4/basis/aug-cc-pvdz-jkfit.gbs
    atoms 3-6, 12-15 entry H          line    70 file /theoryfs2/ds/csargent/miniconda3/envs/cle/share/psi4/basis/aug-cc-pvdz-jkfit.gbs
    atoms 7-9, 16-18 entry C          line   154 file /theoryfs2/ds/csargent/miniconda3/envs/cle/share/psi4/basis/aug-cc-pvdz-jkfit.gbs

  ==> Integral Setup <==

  ==> DiskDFJK: Density-Fitted J/K Matrices <==

    J tasked:                  Yes
    K tasked:                  Yes
    wK tasked:                  No
    OpenMP threads:              6
    Integrals threads:           6
    Memory [MiB]:             5006
    Algorithm:                Core
    Integral Cache:           SAVE
    Schwarz Cutoff:          1E-12
    Fitting Condition:       1E-10

   => Auxiliary Basis Set <=

  Basis Set: (AUG-CC-PVDZ AUX)
    Blend: AUG-CC-PVDZ-JKFIT
    Number of shells: 376
    Number of basis functions: 1116
    Number of Cartesian functions: 1290
    Spherical Harmonics?: true
    Max angular momentum: 3

  Minimum eigenvalue in the overlap matrix is 2.1836321138E-05.
  Reciprocal condition number of the overlap matrix is 1.8393888875E-06.
    Using symmetric orthogonalization.

  ==> Pre-Iterations <==

  SCF Guess: Superposition of Atomic Densities via on-the-fly atomic UHF (no occupation information).

   -------------------------
    Irrep   Nso     Nmo
   -------------------------
     A        302     302
   -------------------------
    Total     302     302
   -------------------------

  ==> Iterations <==

                           Total Energy        Delta E     RMS |[F,P]|

   @DF-RHF iter SAD:  -449.11714338571846   -4.49117e+02   0.00000e+00
   @DF-RHF iter   1:  -449.39616762454557   -2.79024e-01   2.30598e-03 DIIS
   @DF-RHF iter   2:  -449.61068548229053   -2.14518e-01   1.31117e-03 DIIS
   @DF-RHF iter   3:  -449.68338212024094   -7.26966e-02   2.46033e-04 DIIS
   @DF-RHF iter   4:  -449.68675129251977   -3.36917e-03   1.12957e-04 DIIS
   @DF-RHF iter   5:  -449.68735410399051   -6.02811e-04   1.78841e-05 DIIS
   @DF-RHF iter   6:  -449.68738878387484   -3.46799e-05   7.94476e-06 DIIS
   @DF-RHF iter   7:  -449.68739495954054   -6.17567e-06   3.10311e-06 DIIS
   @DF-RHF iter   8:  -449.68739642239211   -1.46285e-06   1.09936e-06 DIIS
   @DF-RHF iter   9:  -449.68739664379564   -2.21404e-07   2.65528e-07 DIIS
   @DF-RHF iter  10:  -449.68739665485191   -1.10563e-08   1.03413e-07 DIIS
   @DF-RHF iter  11:  -449.68739665649662   -1.64471e-09   4.62030e-08 DIIS
   @DF-RHF iter  12:  -449.68739665680005   -3.03430e-10   1.37062e-08 DIIS
   @DF-RHF iter  13:  -449.68739665682619   -2.61480e-11   5.06873e-09 DIIS
   @DF-RHF iter  14:  -449.68739665682995   -3.75167e-12   2.23425e-09 DIIS
   @DF-RHF iter  15:  -449.68739665682995    0.00000e+00   7.45540e-10 DIIS
   @DF-RHF iter  16:  -449.68739665683000   -5.68434e-14   3.31432e-10 DIIS
   @DF-RHF iter  17:  -449.68739665683012   -1.13687e-13   6.69708e-11 DIIS
  Energy and wave function converged.


  ==> Post-Iterations <==

    Orbital Energies [Eh]
    ---------------------

    Doubly Occupied:

       1A    -15.637900     2A    -15.636425     3A    -15.552043
       4A    -15.550559     5A    -11.301742     6A    -11.300256
       7A    -11.264041     8A    -11.262547     9A    -11.246544
      10A    -11.245045    11A     -1.353707    12A     -1.352225
      13A     -1.169936    14A     -1.168455    15A     -1.012958
      16A     -1.011467    17A     -0.825227    18A     -0.823746
      19A     -0.804594    20A     -0.803103    21A     -0.761510
      22A     -0.760023    23A     -0.610948    24A     -0.609459
      25A     -0.604797    26A     -0.603316    27A     -0.602790
      28A     -0.601303    29A     -0.571810    30A     -0.570307
      31A     -0.436313    32A     -0.434832    33A     -0.401306
      34A     -0.399825    35A     -0.321551    36A     -0.320059

    Virtual:

      37A      0.024635    38A      0.026037    39A      0.040687
      40A      0.042232    41A      0.049043    42A      0.050613
      43A      0.060953    44A      0.062481    45A      0.088290
      46A      0.089776    47A      0.100606    48A      0.102098
      49A      0.120023    50A      0.121491    51A      0.124646
      52A      0.126130    53A      0.132620    54A      0.132823
      55A      0.134049    56A      0.134352    57A      0.140029
      58A      0.141560    59A      0.155513    60A      0.157010
      61A      0.158009    62A      0.159527    63A      0.170913
      64A      0.172516    65A      0.177368    66A      0.178839
      67A      0.186464    68A      0.187940    69A      0.210755
      70A      0.212226    71A      0.219379    72A      0.220898
      73A      0.231520    74A      0.232990    75A      0.240547
      76A      0.242025    77A      0.260762    78A      0.262229
      79A      0.266981    80A      0.268451    81A      0.277080
      82A      0.278571    83A      0.300911    84A      0.302396
      85A      0.313673    86A      0.315157    87A      0.337289
      88A      0.338786    89A      0.360595    90A      0.362076
      91A      0.369895    92A      0.371378    93A      0.378958
      94A      0.380434    95A      0.387444    96A      0.388931
      97A      0.396236    98A      0.397713    99A      0.416152
     100A      0.417701   101A      0.428144   102A      0.429638
     103A      0.451212   104A      0.452722   105A      0.465523
     106A      0.467009   107A      0.480397   108A      0.481874
     109A      0.485379   110A      0.486883   111A      0.487269
     112A      0.488779   113A      0.550870   114A      0.552364
     115A      0.555513   116A      0.557007   117A      0.567419
     118A      0.568915   119A      0.575669   120A      0.577146
     121A      0.593400   122A      0.594877   123A      0.598085
     124A      0.599564   125A      0.615208   126A      0.616707
     127A      0.635645   128A      0.637140   129A      0.651641
     130A      0.653146   131A      0.668407   132A      0.669905
     133A      0.670469   134A      0.671966   135A      0.677360
     136A      0.678840   137A      0.682958   138A      0.684474
     139A      0.713844   140A      0.715325   141A      0.724923
     142A      0.726391   143A      0.740373   144A      0.741878
     145A      0.761841   146A      0.763339   147A      0.766546
     148A      0.768040   149A      0.790070   150A      0.791555
     151A      0.792810   152A      0.794287   153A      0.808902
     154A      0.810386   155A      0.859541   156A      0.861031
     157A      0.870557   158A      0.872052   159A      0.884915
     160A      0.886400   161A      0.888900   162A      0.890404
     163A      0.953501   164A      0.954988   165A      0.976138
     166A      0.977615   167A      0.997534   168A      0.999007
     169A      1.009864   170A      1.011349   171A      1.016539
     172A      1.018029   173A      1.029842   174A      1.031328
     175A      1.076517   176A      1.078005   177A      1.083724
     178A      1.085204   179A      1.126113   180A      1.127607
     181A      1.139634   182A      1.141131   183A      1.148720
     184A      1.150203   185A      1.166305   186A      1.167805
     187A      1.216604   188A      1.218090   189A      1.259848
     190A      1.261336   191A      1.301654   192A      1.303161
     193A      1.384205   194A      1.385686   195A      1.397302
     196A      1.398789   197A      1.450304   198A      1.451786
     199A      1.502440   200A      1.503933   201A      1.517562
     202A      1.519045   203A      1.573251   204A      1.573409
     205A      1.574741   206A      1.574905   207A      1.595518
     208A      1.597010   209A      1.651308   210A      1.652793
     211A      1.670619   212A      1.672113   213A      1.704396
     214A      1.705895   215A      1.723674   216A      1.725163
     217A      1.781769   218A      1.783260   219A      1.798186
     220A      1.799684   221A      1.806169   222A      1.807673
     223A      1.864104   224A      1.865595   225A      1.880664
     226A      1.882149   227A      1.923561   228A      1.925044
     229A      1.964145   230A      1.965626   231A      2.021154
     232A      2.022635   233A      2.024580   234A      2.026062
     235A      2.072128   236A      2.073612   237A      2.106195
     238A      2.107683   239A      2.125878   240A      2.127373
     241A      2.135082   242A      2.136577   243A      2.167805
     244A      2.169299   245A      2.177966   246A      2.179453
     247A      2.266234   248A      2.267722   249A      2.275126
     250A      2.276616   251A      2.300106   252A      2.301591
     253A      2.331240   254A      2.332720   255A      2.416878
     256A      2.418369   257A      2.496094   258A      2.497568
     259A      2.513181   260A      2.514669   261A      2.544534
     262A      2.546008   263A      2.584882   264A      2.586368
     265A      2.632906   266A      2.634396   267A      2.733206
     268A      2.734704   269A      2.746190   270A      2.747671
     271A      2.766226   272A      2.767713   273A      2.793303
     274A      2.794787   275A      2.802601   276A      2.804088
     277A      2.836799   278A      2.838282   279A      2.866388
     280A      2.867865   281A      2.951896   282A      2.953379
     283A      2.980027   284A      2.981510   285A      3.050329
     286A      3.051822   287A      3.069050   288A      3.070540
     289A      3.198333   290A      3.199815   291A      3.207946
     292A      3.209433   293A      3.333986   294A      3.335467
     295A      3.353725   296A      3.355210   297A      3.517707
     298A      3.519191   299A      3.767449   300A      3.768937
     301A      4.108156   302A      4.109643

    Final Occupation by Irrep:
              A
    DOCC [    36 ]

  @DF-RHF Final Energy:  -449.68739665683012

   => Energetics <=

    Nuclear Repulsion Energy =            364.5983799091169999
    One-Electron Energy =               -1330.7062214568643412
    Two-Electron Energy =                 516.4204448909172243
    Total Energy =                       -449.6873966568300602

Computation Completed


Properties will be evaluated at   0.000000,   0.000000,   0.000000 [a0]

Properties computed using the SCF density matrix

  Nuclear Dipole Moment: [e a0]
     X:   117.8732      Y:   838.0143      Z:  -325.6476

  Electronic Dipole Moment: [e a0]
     X:  -116.2665      Y:  -837.6829      Z:   322.9824

  Dipole Moment: [e a0]
     X:     1.6067      Y:     0.3314      Z:    -2.6652     Total:     3.1296

  Dipole Moment: [D]
     X:     4.0839      Y:     0.8424      Z:    -6.7743     Total:     7.9548


*** tstop() called on ds1 at Tue Sep 14 16:55:13 2021
Module time:
	user time   =      22.20 seconds =       0.37 minutes
	system time =       0.57 seconds =       0.01 minutes
	total time  =          5 seconds =       0.08 minutes
Total time:
	user time   =      22.20 seconds =       0.37 minutes
	system time =       0.57 seconds =       0.01 minutes
	total time  =          5 seconds =       0.08 minutes

  //>>>>>>>>>>>>>>>>>>>>>>>>>>>>>>>>>>>//
  //            Monomer A HF           //
  //<<<<<<<<<<<<<<<<<<<<<<<<<<<<<<<<<<<//


*** tstart() called on ds1
*** at Tue Sep 14 16:55:13 2021

   => Loading Basis Set <=

    Name: AUG-CC-PVDZ
    Role: ORBITAL
    Keyword: BASIS
    atoms 1-2, 10-11 entry N          line   218 file /theoryfs2/ds/csargent/miniconda3/envs/cle/share/psi4/basis/aug-cc-pvdz.gbs
    atoms 3-6, 12-15 entry H          line    40 file /theoryfs2/ds/csargent/miniconda3/envs/cle/share/psi4/basis/aug-cc-pvdz.gbs
    atoms 7-9, 16-18 entry C          line   182 file /theoryfs2/ds/csargent/miniconda3/envs/cle/share/psi4/basis/aug-cc-pvdz.gbs


         ---------------------------------------------------------
                                   SCF
               by Justin Turney, Rob Parrish, Andy Simmonett
                          and Daniel G. A. Smith
                              RHF Reference
                        6 Threads,   6675 MiB Core
         ---------------------------------------------------------

  ==> Geometry <==

    Molecular point group: c1
    Full point group: C1

    Geometry (in Bohr), charge = 0, multiplicity = 1:

       Center              X                  Y                   Z               Mass
    ------------   -----------------  -----------------  -----------------  -----------------
         N           -4.293096210000    -3.068374310000     5.305162310000    14.003074004430
         N           -2.158473710000    -2.926272960000     1.720374480000    14.003074004430
         H           -0.025455870000    -6.359035750000     2.220464520000     1.007825032230
         H           -2.685669680000    -6.532602410000     6.614459540000     1.007825032230
         H           -4.743884230000    -0.006090060000     2.756159680000     1.007825032230
         H           -1.410455400000    -2.247231470000     0.000000000000     1.007825032230
         C           -1.437379910000    -5.075048480000     2.940658910000    12.000000000000
         C           -2.769007820000    -5.146099160000     5.135228800000    12.000000000000
         C           -3.859550360000    -1.777281980000     3.210934110000    12.000000000000
      Gh(N)           4.671275680000    27.381916580000   -10.878981410000    14.003074004430
      Gh(N)           6.805898180000    27.524017940000   -14.463769240000    14.003074004430
      Gh(H)           8.938916020000    24.091255150000   -13.963679200000     1.007825032230
      Gh(H)           6.278702210000    23.917688490000    -9.569684180000     1.007825032230
      Gh(H)           4.220487660000    30.444200840000   -13.427984050000     1.007825032230
      Gh(H)           7.553916480000    28.203059430000   -16.184143720000     1.007825032230
      Gh(C)           7.526991980000    25.375242410000   -13.243484810000    12.000000000000
      Gh(C)           6.195364070000    25.304191730000   -11.048914920000    12.000000000000
      Gh(C)           5.104821530000    28.673008920000   -12.973209610000    12.000000000000

  Running in c1 symmetry.

  Rotational constants: A =      0.06954  B =      0.00093  C =      0.00092 [cm^-1]
  Rotational constants: A =   2084.90300  B =     27.90187  C =     27.58438 [MHz]
  Nuclear repulsion =  164.086695994184396

  Charge       = 0
  Multiplicity = 1
  Electrons    = 36
  Nalpha       = 18
  Nbeta        = 18

  ==> Algorithm <==

  SCF Algorithm Type is DF.
  DIIS enabled.
  MOM disabled.
  Fractional occupation disabled.
  Guess Type is SAD.
  Energy threshold   = 1.00e-10
  Density threshold  = 1.00e-10
  Integral threshold = 1.00e-12

  ==> Primary Basis <==

  Basis Set: AUG-CC-PVDZ
    Blend: AUG-CC-PVDZ
    Number of shells: 130
    Number of basis functions: 302
    Number of Cartesian functions: 322
    Spherical Harmonics?: true
    Max angular momentum: 2

   => Loading Basis Set <=

    Name: (AUG-CC-PVDZ AUX)
    Role: JKFIT
    Keyword: DF_BASIS_SCF
    atoms 1-2, 10-11 entry N          line   212 file /theoryfs2/ds/csargent/miniconda3/envs/cle/share/psi4/basis/aug-cc-pvdz-jkfit.gbs
    atoms 3-6, 12-15 entry H          line    70 file /theoryfs2/ds/csargent/miniconda3/envs/cle/share/psi4/basis/aug-cc-pvdz-jkfit.gbs
    atoms 7-9, 16-18 entry C          line   154 file /theoryfs2/ds/csargent/miniconda3/envs/cle/share/psi4/basis/aug-cc-pvdz-jkfit.gbs

  ==> Integral Setup <==

  ==> DiskDFJK: Density-Fitted J/K Matrices <==

    J tasked:                  Yes
    K tasked:                  Yes
    wK tasked:                  No
    OpenMP threads:              6
    Integrals threads:           6
    Memory [MiB]:             5006
    Algorithm:                Core
    Integral Cache:           LOAD
    Schwarz Cutoff:          1E-12
    Fitting Condition:       1E-10

   => Auxiliary Basis Set <=

  Basis Set: (AUG-CC-PVDZ AUX)
    Blend: AUG-CC-PVDZ-JKFIT
    Number of shells: 376
    Number of basis functions: 1116
    Number of Cartesian functions: 1290
    Spherical Harmonics?: true
    Max angular momentum: 3

  Minimum eigenvalue in the overlap matrix is 2.1836321138E-05.
  Reciprocal condition number of the overlap matrix is 1.8393888875E-06.
    Using symmetric orthogonalization.

  ==> Pre-Iterations <==

  SCF Guess: Superposition of Atomic Densities via on-the-fly atomic UHF (no occupation information).

   -------------------------
    Irrep   Nso     Nmo
   -------------------------
     A        302     302
   -------------------------
    Total     302     302
   -------------------------

  ==> Iterations <==

                           Total Energy        Delta E     RMS |[F,P]|

   @DF-RHF iter SAD:  -224.55857169492046   -2.24559e+02   0.00000e+00
   @DF-RHF iter   1:  -224.69806464828451   -1.39493e-01   1.63067e-03 DIIS
   @DF-RHF iter   2:  -224.80532026667026   -1.07256e-01   9.27384e-04 DIIS
   @DF-RHF iter   3:  -224.84168817051307   -3.63679e-02   1.74019e-04 DIIS
   @DF-RHF iter   4:  -224.84337342257317   -1.68525e-03   7.98972e-05 DIIS
   @DF-RHF iter   5:  -224.84367500328278   -3.01581e-04   1.26452e-05 DIIS
   @DF-RHF iter   6:  -224.84369234031527   -1.73370e-05   5.61871e-06 DIIS
   @DF-RHF iter   7:  -224.84369542838405   -3.08807e-06   2.19503e-06 DIIS
   @DF-RHF iter   8:  -224.84369616030239   -7.31918e-07   7.77587e-07 DIIS
   @DF-RHF iter   9:  -224.84369627109666   -1.10794e-07   1.87961e-07 DIIS
   @DF-RHF iter  10:  -224.84369627663222   -5.53555e-09   7.33125e-08 DIIS
   @DF-RHF iter  11:  -224.84369627745875   -8.26532e-10   3.26918e-08 DIIS
   @DF-RHF iter  12:  -224.84369627761058   -1.51829e-10   9.70884e-09 DIIS
   @DF-RHF iter  13:  -224.84369627762376   -1.31877e-11   3.58840e-09 DIIS
   @DF-RHF iter  14:  -224.84369627762558   -1.81899e-12   1.58275e-09 DIIS
   @DF-RHF iter  15:  -224.84369627762558    0.00000e+00   5.27556e-10 DIIS
   @DF-RHF iter  16:  -224.84369627762581   -2.27374e-13   2.34517e-10 DIIS
   @DF-RHF iter  17:  -224.84369627762581    0.00000e+00   4.71139e-11 DIIS
  Energy and wave function converged.


  ==> Post-Iterations <==

    Orbital Energies [Eh]
    ---------------------

    Doubly Occupied:

       1A    -15.637071     2A    -15.551216     3A    -11.300916
       4A    -11.263160     5A    -11.245653     6A     -1.352867
       7A     -1.169098     8A     -1.012098     9A     -0.824390
      10A     -0.803731    11A     -0.760666    12A     -0.610096
      13A     -0.603958    14A     -0.601922    15A     -0.570942
      16A     -0.435483    17A     -0.400464    18A     -0.320685

    Virtual:

      19A      0.021800    20A      0.025388    21A      0.039350
      22A      0.041579    23A      0.042769    24A      0.049997
      25A      0.061864    26A      0.066982    27A      0.075799
      28A      0.085423    29A      0.089096    30A      0.096860
      31A      0.101397    32A      0.120831    33A      0.123845
      34A      0.124190    35A      0.125577    36A      0.125988
      37A      0.126509    38A      0.133472    39A      0.133476
      40A      0.133773    41A      0.137312    42A      0.140942
      43A      0.155815    44A      0.156500    45A      0.158700
      46A      0.171988    47A      0.178189    48A      0.187224
      49A      0.191487    50A      0.207067    51A      0.208611
      52A      0.211559    53A      0.211807    54A      0.219564
      55A      0.220268    56A      0.221856    57A      0.232353
      58A      0.232359    59A      0.241408    60A      0.261605
      61A      0.267803    62A      0.271436    63A      0.277911
      64A      0.298681    65A      0.301746    66A      0.305707
      67A      0.314442    68A      0.318486    69A      0.338197
      70A      0.359506    71A      0.361488    72A      0.370745
      73A      0.374670    74A      0.379800    75A      0.388291
      76A      0.392720    77A      0.397097    78A      0.417031
      79A      0.426576    80A      0.429000    81A      0.434397
      82A      0.439615    83A      0.448328    84A      0.451434
      85A      0.452059    86A      0.466350    87A      0.467384
      88A      0.480312    89A      0.481229    90A      0.486283
      91A      0.488151    92A      0.516589    93A      0.519848
      94A      0.535302    95A      0.537550    96A      0.542364
      97A      0.551710    98A      0.555170    99A      0.556382
     100A      0.568280   101A      0.576474   102A      0.578683
     103A      0.586851   104A      0.594249   105A      0.598939
     106A      0.605647   107A      0.611423   108A      0.616080
     109A      0.617649   110A      0.636538   111A      0.638990
     112A      0.652504   113A      0.669282   114A      0.671337
     115A      0.676920   116A      0.678185   117A      0.683016
     118A      0.683874   119A      0.710466   120A      0.714698
     121A      0.725758   122A      0.735328   123A      0.741238
     124A      0.755455   125A      0.762698   126A      0.767400
     127A      0.790929   128A      0.793606   129A      0.797524
     130A      0.809747   131A      0.809761   132A      0.811855
     133A      0.822474   134A      0.835832   135A      0.858850
     136A      0.860398   137A      0.871425   138A      0.885765
     139A      0.885848   140A      0.889823   141A      0.909031
     142A      0.918939   143A      0.926194   144A      0.954351
     145A      0.968044   146A      0.976964   147A      0.991138
     148A      0.998360   149A      1.010706   150A      1.014727
     151A      1.017404   152A      1.030676   153A      1.058258
     154A      1.077353   155A      1.077938   156A      1.084552
     157A      1.102961   158A      1.115291   159A      1.126983
     160A      1.131804   161A      1.140497   162A      1.149565
     163A      1.167170   164A      1.170167   165A      1.173417
     166A      1.196900   167A      1.209915   168A      1.217445
     169A      1.260721   170A      1.277374   171A      1.289999
     172A      1.296325   173A      1.302539   174A      1.311895
     175A      1.317450   176A      1.346916   177A      1.383436
     178A      1.385028   179A      1.398145   180A      1.451143
     181A      1.494278   182A      1.503288   183A      1.515191
     184A      1.518410   185A      1.540670   186A      1.574127
     187A      1.574285   188A      1.596381   189A      1.652159
     190A      1.660270   191A      1.671505   192A      1.705286
     193A      1.724477   194A      1.782643   195A      1.799067
     196A      1.807063   197A      1.864950   198A      1.881477
     199A      1.924391   200A      1.964987   201A      2.022005
     202A      2.025429   203A      2.038958   204A      2.072981
     205A      2.100428   206A      2.107054   207A      2.118842
     208A      2.126759   209A      2.130691   210A      2.135965
     211A      2.148813   212A      2.168670   213A      2.178815
     214A      2.184325   215A      2.229083   216A      2.252075
     217A      2.267082   218A      2.275963   219A      2.300924
     220A      2.307988   221A      2.326577   222A      2.332072
     223A      2.376302   224A      2.405073   225A      2.412701
     226A      2.417758   227A      2.455096   228A      2.470255
     229A      2.493317   230A      2.496919   231A      2.514025
     232A      2.525347   233A      2.544890   234A      2.545345
     235A      2.576247   236A      2.585743   237A      2.599271
     238A      2.633765   239A      2.695641   240A      2.734093
     241A      2.747025   242A      2.767089   243A      2.789918
     244A      2.794149   245A      2.803444   246A      2.828236
     247A      2.837641   248A      2.867213   249A      2.895344
     250A      2.932680   251A      2.948873   252A      2.952738
     253A      2.980862   254A      3.043075   255A      3.051201
     256A      3.069910   257A      3.075713   258A      3.131504
     259A      3.159202   260A      3.182470   261A      3.199163
     262A      3.208795   263A      3.212903   264A      3.334816
     265A      3.340373   266A      3.354318   267A      3.354572
     268A      3.362390   269A      3.458244   270A      3.494046
     271A      3.518552   272A      3.569174   273A      3.608494
     274A      3.706816   275A      3.726279   276A      3.768294
     277A      3.777946   278A      3.797787   279A      3.857470
     280A      3.870324   281A      4.003460   282A      4.109022
     283A      4.212369   284A      4.636287   285A      4.638383
     286A      4.695515   287A      4.771409   288A      4.879665
     289A      5.020983   290A      5.254284   291A      5.372763
     292A      5.494413   293A      5.609906   294A      5.715868
     295A      5.883532   296A      6.089300   297A      6.197778
     298A     18.254963   299A     18.589815   300A     19.299921
     301A     25.311551   302A     25.452886

    Final Occupation by Irrep:
              A
    DOCC [    18 ]

  @DF-RHF Final Energy:  -224.84369627762581

   => Energetics <=

    Nuclear Repulsion Energy =            164.0866959941843959
    One-Electron Energy =                -628.9319562989954875
    Two-Electron Energy =                 240.0015640271852533
    Total Energy =                       -224.8436962776258099

Computation Completed


Properties will be evaluated at   0.000000,   0.000000,   0.000000 [a0]

Properties computed using the SCF density matrix

  Nuclear Dipole Moment: [e a0]
     X:  -102.4221      Y:  -129.0981      Z:   128.4908

  Electronic Dipole Moment: [e a0]
     X:   103.2259      Y:   129.2613      Z:  -129.8232

  Dipole Moment: [e a0]
     X:     0.8038      Y:     0.1633      Z:    -1.3324     Total:     1.5646

  Dipole Moment: [D]
     X:     2.0431      Y:     0.4150      Z:    -3.3867     Total:     3.9769


*** tstop() called on ds1 at Tue Sep 14 16:55:16 2021
Module time:
	user time   =      15.90 seconds =       0.26 minutes
	system time =       0.36 seconds =       0.01 minutes
	total time  =          3 seconds =       0.05 minutes
Total time:
	user time   =      38.19 seconds =       0.64 minutes
	system time =       0.93 seconds =       0.02 minutes
	total time  =          8 seconds =       0.13 minutes

  //>>>>>>>>>>>>>>>>>>>>>>>>>>>>>>>>>>>//
  //            Monomer B HF           //
  //<<<<<<<<<<<<<<<<<<<<<<<<<<<<<<<<<<<//


*** tstart() called on ds1
*** at Tue Sep 14 16:55:16 2021

   => Loading Basis Set <=

    Name: AUG-CC-PVDZ
    Role: ORBITAL
    Keyword: BASIS
    atoms 1-2, 10-11 entry N          line   218 file /theoryfs2/ds/csargent/miniconda3/envs/cle/share/psi4/basis/aug-cc-pvdz.gbs
    atoms 3-6, 12-15 entry H          line    40 file /theoryfs2/ds/csargent/miniconda3/envs/cle/share/psi4/basis/aug-cc-pvdz.gbs
    atoms 7-9, 16-18 entry C          line   182 file /theoryfs2/ds/csargent/miniconda3/envs/cle/share/psi4/basis/aug-cc-pvdz.gbs


         ---------------------------------------------------------
                                   SCF
               by Justin Turney, Rob Parrish, Andy Simmonett
                          and Daniel G. A. Smith
                              RHF Reference
                        6 Threads,   6675 MiB Core
         ---------------------------------------------------------

  ==> Geometry <==

    Molecular point group: c1
    Full point group: C1

    Geometry (in Bohr), charge = 0, multiplicity = 1:

       Center              X                  Y                   Z               Mass
    ------------   -----------------  -----------------  -----------------  -----------------
      Gh(N)          -4.293096210000    -3.068374310000     5.305162310000    14.003074004430
      Gh(N)          -2.158473710000    -2.926272960000     1.720374480000    14.003074004430
      Gh(H)          -0.025455870000    -6.359035750000     2.220464520000     1.007825032230
      Gh(H)          -2.685669680000    -6.532602410000     6.614459540000     1.007825032230
      Gh(H)          -4.743884230000    -0.006090060000     2.756159680000     1.007825032230
      Gh(H)          -1.410455400000    -2.247231470000     0.000000000000     1.007825032230
      Gh(C)          -1.437379910000    -5.075048480000     2.940658910000    12.000000000000
      Gh(C)          -2.769007820000    -5.146099160000     5.135228800000    12.000000000000
      Gh(C)          -3.859550360000    -1.777281980000     3.210934110000    12.000000000000
         N            4.671275680000    27.381916580000   -10.878981410000    14.003074004430
         N            6.805898180000    27.524017940000   -14.463769240000    14.003074004430
         H            8.938916020000    24.091255150000   -13.963679200000     1.007825032230
         H            6.278702210000    23.917688490000    -9.569684180000     1.007825032230
         H            4.220487660000    30.444200840000   -13.427984050000     1.007825032230
         H            7.553916480000    28.203059430000   -16.184143720000     1.007825032230
         C            7.526991980000    25.375242410000   -13.243484810000    12.000000000000
         C            6.195364070000    25.304191730000   -11.048914920000    12.000000000000
         C            5.104821530000    28.673008920000   -12.973209610000    12.000000000000

  Running in c1 symmetry.

  Rotational constants: A =      0.06954  B =      0.00093  C =      0.00092 [cm^-1]
  Rotational constants: A =   2084.90300  B =     27.90187  C =     27.58438 [MHz]
  Nuclear repulsion =  164.086695877480878

  Charge       = 0
  Multiplicity = 1
  Electrons    = 36
  Nalpha       = 18
  Nbeta        = 18

  ==> Algorithm <==

  SCF Algorithm Type is DF.
  DIIS enabled.
  MOM disabled.
  Fractional occupation disabled.
  Guess Type is SAD.
  Energy threshold   = 1.00e-10
  Density threshold  = 1.00e-10
  Integral threshold = 1.00e-12

  ==> Primary Basis <==

  Basis Set: AUG-CC-PVDZ
    Blend: AUG-CC-PVDZ
    Number of shells: 130
    Number of basis functions: 302
    Number of Cartesian functions: 322
    Spherical Harmonics?: true
    Max angular momentum: 2

   => Loading Basis Set <=

    Name: (AUG-CC-PVDZ AUX)
    Role: JKFIT
    Keyword: DF_BASIS_SCF
    atoms 1-2, 10-11 entry N          line   212 file /theoryfs2/ds/csargent/miniconda3/envs/cle/share/psi4/basis/aug-cc-pvdz-jkfit.gbs
    atoms 3-6, 12-15 entry H          line    70 file /theoryfs2/ds/csargent/miniconda3/envs/cle/share/psi4/basis/aug-cc-pvdz-jkfit.gbs
    atoms 7-9, 16-18 entry C          line   154 file /theoryfs2/ds/csargent/miniconda3/envs/cle/share/psi4/basis/aug-cc-pvdz-jkfit.gbs

  ==> Integral Setup <==

  ==> DiskDFJK: Density-Fitted J/K Matrices <==

    J tasked:                  Yes
    K tasked:                  Yes
    wK tasked:                  No
    OpenMP threads:              6
    Integrals threads:           6
    Memory [MiB]:             5006
    Algorithm:                Core
    Integral Cache:           LOAD
    Schwarz Cutoff:          1E-12
    Fitting Condition:       1E-10

   => Auxiliary Basis Set <=

  Basis Set: (AUG-CC-PVDZ AUX)
    Blend: AUG-CC-PVDZ-JKFIT
    Number of shells: 376
    Number of basis functions: 1116
    Number of Cartesian functions: 1290
    Spherical Harmonics?: true
    Max angular momentum: 3

  Minimum eigenvalue in the overlap matrix is 2.1836321138E-05.
  Reciprocal condition number of the overlap matrix is 1.8393888875E-06.
    Using symmetric orthogonalization.

  ==> Pre-Iterations <==

  SCF Guess: Superposition of Atomic Densities via on-the-fly atomic UHF (no occupation information).

   -------------------------
    Irrep   Nso     Nmo
   -------------------------
     A        302     302
   -------------------------
    Total     302     302
   -------------------------

  ==> Iterations <==

                           Total Energy        Delta E     RMS |[F,P]|

   @DF-RHF iter SAD:  -224.55857168419851   -2.24559e+02   0.00000e+00
   @DF-RHF iter   1:  -224.69806464890559   -1.39493e-01   1.63067e-03 DIIS
   @DF-RHF iter   2:  -224.80532026721070   -1.07256e-01   9.27384e-04 DIIS
   @DF-RHF iter   3:  -224.84168817130472   -3.63679e-02   1.74019e-04 DIIS
   @DF-RHF iter   4:  -224.84337342339845   -1.68525e-03   7.98972e-05 DIIS
   @DF-RHF iter   5:  -224.84367500411295   -3.01581e-04   1.26452e-05 DIIS
   @DF-RHF iter   6:  -224.84369234114587   -1.73370e-05   5.61871e-06 DIIS
   @DF-RHF iter   7:  -224.84369542921561   -3.08807e-06   2.19503e-06 DIIS
   @DF-RHF iter   8:  -224.84369616113409   -7.31918e-07   7.77587e-07 DIIS
   @DF-RHF iter   9:  -224.84369627192800   -1.10794e-07   1.87961e-07 DIIS
   @DF-RHF iter  10:  -224.84369627746366   -5.53567e-09   7.33125e-08 DIIS
   @DF-RHF iter  11:  -224.84369627828983   -8.26162e-10   3.26918e-08 DIIS
   @DF-RHF iter  12:  -224.84369627844217   -1.52340e-10   9.70884e-09 DIIS
   @DF-RHF iter  13:  -224.84369627845550   -1.33298e-11   3.58840e-09 DIIS
   @DF-RHF iter  14:  -224.84369627845706   -1.56319e-12   1.58275e-09 DIIS
   @DF-RHF iter  15:  -224.84369627845717   -1.13687e-13   5.27556e-10 DIIS
   @DF-RHF iter  16:  -224.84369627845714    2.84217e-14   2.34517e-10 DIIS
   @DF-RHF iter  17:  -224.84369627845712    2.84217e-14   4.71139e-11 DIIS
  Energy and wave function converged.


  ==> Post-Iterations <==

    Orbital Energies [Eh]
    ---------------------

    Doubly Occupied:

       1A    -15.637071     2A    -15.551216     3A    -11.300916
       4A    -11.263160     5A    -11.245653     6A     -1.352867
       7A     -1.169098     8A     -1.012098     9A     -0.824390
      10A     -0.803731    11A     -0.760666    12A     -0.610096
      13A     -0.603958    14A     -0.601922    15A     -0.570942
      16A     -0.435483    17A     -0.400464    18A     -0.320685

    Virtual:

      19A      0.023296    20A      0.025388    21A      0.040933
      22A      0.041580    23A      0.044213    24A      0.049997
      25A      0.061864    26A      0.068435    27A      0.077288
      28A      0.087006    29A      0.089096    30A      0.098281
      31A      0.101397    32A      0.120831    33A      0.125317
      34A      0.125577    35A      0.125742    36A      0.127520
      37A      0.127995    38A      0.133472    39A      0.133772
      40A      0.134965    41A      0.138801    42A      0.140942
      43A      0.156500    44A      0.157330    45A      0.158699
      46A      0.171988    47A      0.178189    48A      0.187224
      49A      0.192937    50A      0.208522    51A      0.210125
      52A      0.211559    53A      0.213294    54A      0.220268
      55A      0.221090    56A      0.223302    57A      0.232359
      58A      0.233823    59A      0.241408    60A      0.261605
      61A      0.267803    62A      0.272906    63A      0.277911
      64A      0.300184    65A      0.301746    66A      0.307184
      67A      0.314442    68A      0.319991    69A      0.338197
      70A      0.361000    71A      0.361489    72A      0.370745
      73A      0.376158    74A      0.379800    75A      0.388291
      76A      0.394214    77A      0.397097    78A      0.417031
      79A      0.428067    80A      0.429000    81A      0.435860
      82A      0.441142    83A      0.449798    84A      0.452059
      85A      0.452902    86A      0.466350    87A      0.468875
      88A      0.481229    89A      0.481824    90A      0.486283
      91A      0.488151    92A      0.518101    93A      0.521324
      94A      0.536801    95A      0.539007    96A      0.543869
      97A      0.551710    98A      0.556382    99A      0.556635
     100A      0.568280   101A      0.576474   102A      0.580144
     103A      0.588345   104A      0.594249   105A      0.598939
     106A      0.607157   107A      0.612892   108A      0.616080
     109A      0.619118   110A      0.636538   111A      0.640491
     112A      0.652504   113A      0.669282   114A      0.671337
     115A      0.678185   116A      0.678405   117A      0.683874
     118A      0.684523   119A      0.711980   120A      0.714698
     121A      0.725758   122A      0.736830   123A      0.741238
     124A      0.756925   125A      0.762698   126A      0.767400
     127A      0.790929   128A      0.793606   129A      0.799002
     130A      0.809747   131A      0.811244   132A      0.813325
     133A      0.823970   134A      0.837342   135A      0.860353
     136A      0.860398   137A      0.871425   138A      0.885765
     139A      0.887339   140A      0.889823   141A      0.910523
     142A      0.920428   143A      0.927676   144A      0.954351
     145A      0.969513   146A      0.976964   147A      0.992621
     148A      0.998360   149A      1.010706   150A      1.016230
     151A      1.017404   152A      1.030676   153A      1.059745
     154A      1.077353   155A      1.079412   156A      1.084552
     157A      1.104455   158A      1.116772   159A      1.126983
     160A      1.133266   161A      1.140497   162A      1.149565
     163A      1.167170   164A      1.171658   165A      1.174883
     166A      1.198375   167A      1.211393   168A      1.217445
     169A      1.260721   170A      1.278857   171A      1.291472
     172A      1.297796   173A      1.302539   174A      1.313367
     175A      1.318918   176A      1.348390   177A      1.384909
     178A      1.385028   179A      1.398145   180A      1.451143
     181A      1.495743   182A      1.503288   183A      1.516667
     184A      1.518410   185A      1.542153   186A      1.574127
     187A      1.574285   188A      1.596381   189A      1.652159
     190A      1.661745   191A      1.671505   192A      1.705286
     193A      1.724477   194A      1.782643   195A      1.799067
     196A      1.807063   197A      1.864950   198A      1.881477
     199A      1.924391   200A      1.964987   201A      2.022005
     202A      2.025429   203A      2.040461   204A      2.072981
     205A      2.101924   206A      2.107054   207A      2.120340
     208A      2.126759   209A      2.132198   210A      2.135965
     211A      2.150307   212A      2.168670   213A      2.178815
     214A      2.185841   215A      2.230567   216A      2.253584
     217A      2.267082   218A      2.275963   219A      2.300924
     220A      2.309484   221A      2.328071   222A      2.332072
     223A      2.377790   224A      2.406511   225A      2.414190
     226A      2.417758   227A      2.456586   228A      2.471738
     229A      2.494802   230A      2.496919   231A      2.514025
     232A      2.526821   233A      2.545345   234A      2.546384
     235A      2.577743   236A      2.585743   237A      2.600760
     238A      2.633765   239A      2.697117   240A      2.734093
     241A      2.747025   242A      2.767089   243A      2.791401
     244A      2.794149   245A      2.803444   246A      2.829746
     247A      2.837641   248A      2.867213   249A      2.896827
     250A      2.934173   251A      2.950353   252A      2.952738
     253A      2.980862   254A      3.044556   255A      3.051201
     256A      3.069910   257A      3.077196   258A      3.132974
     259A      3.160683   260A      3.183962   261A      3.199163
     262A      3.208795   263A      3.214391   264A      3.334816
     265A      3.341854   266A      3.354572   267A      3.355791
     268A      3.363875   269A      3.459715   270A      3.495522
     271A      3.518552   272A      3.570631   273A      3.609973
     274A      3.708285   275A      3.727753   276A      3.768294
     277A      3.779420   278A      3.799244   279A      3.858955
     280A      3.871794   281A      4.004938   282A      4.109022
     283A      4.213838   284A      4.637770   285A      4.639858
     286A      4.697003   287A      4.772874   288A      4.881136
     289A      5.022467   290A      5.255768   291A      5.374246
     292A      5.495898   293A      5.611394   294A      5.717336
     295A      5.885012   296A      6.090759   297A      6.199250
     298A     18.256462   299A     18.591289   300A     19.301420
     301A     25.313026   302A     25.454341

    Final Occupation by Irrep:
              A
    DOCC [    18 ]

  @DF-RHF Final Energy:  -224.84369627845712

   => Energetics <=

    Nuclear Repulsion Energy =            164.0866958774808779
    One-Electron Energy =                -628.9319560710091537
    Two-Electron Energy =                 240.0015639150711309
    Total Energy =                       -224.8436962784571165

Computation Completed


Properties will be evaluated at   0.000000,   0.000000,   0.000000 [a0]

Properties computed using the SCF density matrix

  Nuclear Dipole Moment: [e a0]
     X:   220.2953      Y:   967.1124      Z:  -454.1384

  Electronic Dipole Moment: [e a0]
     X:  -219.4915      Y:  -966.9491      Z:   452.8060

  Dipole Moment: [e a0]
     X:     0.8038      Y:     0.1633      Z:    -1.3324     Total:     1.5646

  Dipole Moment: [D]
     X:     2.0431      Y:     0.4150      Z:    -3.3867     Total:     3.9769


*** tstop() called on ds1 at Tue Sep 14 16:55:20 2021
Module time:
	user time   =      15.99 seconds =       0.27 minutes
	system time =       0.42 seconds =       0.01 minutes
	total time  =          4 seconds =       0.07 minutes
Total time:
	user time   =      54.34 seconds =       0.91 minutes
	system time =       1.36 seconds =       0.02 minutes
	total time  =         12 seconds =       0.20 minutes
  Constructing Basis Sets for SAPT...

   => Loading Basis Set <=

    Name: (AUG-CC-PVDZ AUX)
    Role: RIFIT
    Keyword: DF_BASIS_SAPT
    atoms 1-2, 10-11 entry N          line   158 file /theoryfs2/ds/csargent/miniconda3/envs/cle/share/psi4/basis/aug-cc-pvdz-ri.gbs
    atoms 3-6, 12-15 entry H          line    30 file /theoryfs2/ds/csargent/miniconda3/envs/cle/share/psi4/basis/aug-cc-pvdz-ri.gbs
    atoms 7-9, 16-18 entry C          line   112 file /theoryfs2/ds/csargent/miniconda3/envs/cle/share/psi4/basis/aug-cc-pvdz-ri.gbs


  //>>>>>>>>>>>>>>>>>>>>>>>>>>>>>>>>>>>//
  //               SAPT0               //
  //<<<<<<<<<<<<<<<<<<<<<<<<<<<<<<<<<<<//


*** tstart() called on ds1
*** at Tue Sep 14 16:55:20 2021

        SAPT0
    Ed Hohenstein
     6 June 2009

      Orbital Information
  --------------------------
    NSO        =       302
    NMO        =       302
    NRI        =       904
    NOCC A     =        18
    NOCC B     =        18
    FOCC A     =         5
    FOCC B     =         5
    NVIR A     =       284
    NVIR B     =       284

    Elst10,r            =    -0.000003961961 [Eh]
    Exch10              =     0.000000000000 [Eh]
    Exch10 (S^2)        =     0.000000000000 [Eh]

    Iter     Energy [mEh]          dE [mEh]         Residual      Time [s]
       1      -0.00004445       0.000044450       0.063714474             0
       2      -0.00004266      -0.000001792       0.018061465             0
       3      -0.00004784       0.000005179       0.005528424             0
       4      -0.00004805       0.000000217       0.002871961             0
       5      -0.00004782      -0.000000236       0.000899794             1
       6      -0.00004782       0.000000007       0.000328016             1
       7      -0.00004784       0.000000013       0.000102962             1
       8      -0.00004784       0.000000003       0.000033380             1
       9      -0.00004784      -0.000000001       0.000014398             1
      10      -0.00004784      -0.000000001       0.000003886             1
      11      -0.00004784       0.000000000       0.000001269             1
      12      -0.00004784       0.000000000       0.000000401             1

    CHF Iterations converged


    Iter     Energy [mEh]          dE [mEh]         Residual      Time [s]
       1      -0.00007865       0.000078654       0.081424438             1
       2      -0.00007510      -0.000003557       0.022907326             1
       3      -0.00008244       0.000007347       0.007951904             1
       4      -0.00008330       0.000000851       0.002274360             1
       5      -0.00008312      -0.000000180       0.001438636             1
       6      -0.00008301      -0.000000104       0.000482191             1
       7      -0.00008304       0.000000028       0.000150165             1
       8      -0.00008305       0.000000007       0.000046748             1
       9      -0.00008305      -0.000000002       0.000016677             2
      10      -0.00008304      -0.000000001       0.000004320             2
      11      -0.00008304       0.000000000       0.000001365             2
      12      -0.00008304      -0.000000000       0.000000535             2

    CHF Iterations converged

    Ind20,r (A<-B)      =    -0.000000047840 [Eh]
    Ind20,r (B<-A)      =    -0.000000083045 [Eh]
    Ind20,r             =    -0.000000130884 [Eh]
    Exch-Ind20,r (A<-B) =     0.000000000000 [Eh]
    Exch-Ind20,r (B<-A) =     0.000000000000 [Eh]
    Exch-Ind20,r        =     0.000000000000 [Eh]
    Disp20              =    -0.000000678001 [Eh]
    Disp20 (SS)         =    -0.000000339000 [Eh]
    Disp20 (OS)         =    -0.000000339000 [Eh]
    Exch-Disp20         =     0.000000000000 [Eh]
    Exch-Disp20 (SS)    =     0.000000000000 [Eh]
    Exch-Disp20 (OS)    =     0.000000000000 [Eh]

    SAPT Results
  --------------------------------------------------------------------------------------------------------
    Electrostatics                 -0.00396196 [mEh]      -0.00248617 [kcal/mol]      -0.01040213 [kJ/mol]
      Elst10,r                     -0.00396196 [mEh]      -0.00248617 [kcal/mol]      -0.01040213 [kJ/mol]

    Exchange                        0.00000000 [mEh]       0.00000000 [kcal/mol]       0.00000000 [kJ/mol]
      Exch10                        0.00000000 [mEh]       0.00000000 [kcal/mol]       0.00000000 [kJ/mol]
      Exch10(S^2)                   0.00000000 [mEh]       0.00000000 [kcal/mol]       0.00000000 [kJ/mol]

    Induction                      -0.00013879 [mEh]      -0.00008709 [kcal/mol]      -0.00036438 [kJ/mol]
      Ind20,r                      -0.00013088 [mEh]      -0.00008213 [kcal/mol]      -0.00034364 [kJ/mol]
      Exch-Ind20,r                  0.00000000 [mEh]       0.00000000 [kcal/mol]       0.00000000 [kJ/mol]
      delta HF,r (2)               -0.00000790 [mEh]      -0.00000496 [kcal/mol]      -0.00002075 [kJ/mol]

    Dispersion                     -0.00067800 [mEh]      -0.00042545 [kcal/mol]      -0.00178009 [kJ/mol]
      Disp20                       -0.00067800 [mEh]      -0.00042545 [kcal/mol]      -0.00178009 [kJ/mol]
      Exch-Disp20                   0.00000000 [mEh]       0.00000000 [kcal/mol]       0.00000000 [kJ/mol]
      Disp20 (SS)                  -0.00033900 [mEh]      -0.00021273 [kcal/mol]      -0.00089005 [kJ/mol]
      Disp20 (OS)                  -0.00033900 [mEh]      -0.00021273 [kcal/mol]      -0.00089005 [kJ/mol]
      Exch-Disp20 (SS)              0.00000000 [mEh]       0.00000000 [kcal/mol]       0.00000000 [kJ/mol]
      Exch-Disp20 (OS)              0.00000000 [mEh]       0.00000000 [kcal/mol]       0.00000000 [kJ/mol]

  Total HF                         -0.00410075 [mEh]      -0.00257326 [kcal/mol]      -0.01076651 [kJ/mol]
  Total SAPT0                      -0.00477875 [mEh]      -0.00299871 [kcal/mol]      -0.01254660 [kJ/mol]

  Special recipe for scaled SAPT0 (see Manual):
    Electrostatics sSAPT0          -0.00396196 [mEh]      -0.00248617 [kcal/mol]      -0.01040213 [kJ/mol]
    Exchange sSAPT0                 0.00000000 [mEh]       0.00000000 [kcal/mol]       0.00000000 [kJ/mol]
    Induction sSAPT0               -0.00013879 [mEh]      -0.00008709 [kcal/mol]      -0.00036438 [kJ/mol]
    Dispersion sSAPT0              -0.00067800 [mEh]      -0.00042545 [kcal/mol]      -0.00178009 [kJ/mol]
  Total sSAPT0                     -0.00477875 [mEh]      -0.00299871 [kcal/mol]      -0.01254660 [kJ/mol]
  --------------------------------------------------------------------------------------------------------

*** tstop() called on ds1 at Tue Sep 14 16:55:29 2021
Module time:
	user time   =      45.24 seconds =       0.75 minutes
	system time =       4.00 seconds =       0.07 minutes
	total time  =          9 seconds =       0.15 minutes
Total time:
	user time   =     100.40 seconds =       1.67 minutes
	system time =       5.39 seconds =       0.09 minutes
	total time  =         21 seconds =       0.35 minutes


Warning! sapt0 does not have an associated derived wavefunction.The returned wavefunction is the dimer SCF wavefunction.


    Psi4 stopped on: Tuesday, 14 September 2021 04:55PM
    Psi4 wall time for execution: 0:00:21.43

*** Psi4 exiting successfully. Buy a developer a beer!
