
    -----------------------------------------------------------------------
          Psi4: An Open-Source Ab Initio Electronic Structure Package
                               Psi4 1.4rc3

                         Git: Rev {HEAD} 080dba6


    D. G. A. Smith, L. A. Burns, A. C. Simmonett, R. M. Parrish,
    M. C. Schieber, R. Galvelis, P. Kraus, H. Kruse, R. Di Remigio,
    A. Alenaizan, A. M. James, S. Lehtola, J. P. Misiewicz, M. Scheurer,
    R. A. Shaw, J. B. Schriber, Y. Xie, Z. L. Glick, D. A. Sirianni,
    J. S. O'Brien, J. M. Waldrop, A. Kumar, E. G. Hohenstein,
    B. P. Pritchard, B. R. Brooks, H. F. Schaefer III, A. Yu. Sokolov,
    K. Patkowski, A. E. DePrince III, U. Bozkaya, R. A. King,
    F. A. Evangelista, J. M. Turney, T. D. Crawford, C. D. Sherrill,
    J. Chem. Phys. 152(18) 184108 (2020). https://doi.org/10.1063/5.0006002

                            Additional Code Authors
    E. T. Seidl, C. L. Janssen, E. F. Valeev, M. L. Leininger,
    J. F. Gonthier, R. M. Richard, H. R. McAlexander, M. Saitow, X. Wang,
    P. Verma, and M. H. Lechner

             Previous Authors, Complete List of Code Contributors,
                       and Citations for Specific Modules
    https://github.com/psi4/psi4/blob/master/codemeta.json
    https://github.com/psi4/psi4/graphs/contributors
    http://psicode.org/psi4manual/master/introduction.html#citing-psifour

    -----------------------------------------------------------------------


    Psi4 started on: Tuesday, 14 September 2021 04:49PM

    Process ID: 1182
    Host:       ds1
    PSIDATADIR: /theoryfs2/ds/csargent/miniconda3/envs/cle/share/psi4
    Memory:     500.0 MiB
    Threads:    6

  ==> Input File <==

--------------------------------------------------------------------------
# PSI4 file produced by CrystaLattE

# Generated from:               imidazole.xyz
# Psithon input for N-mer:      2mer-0+314
# Number of atoms per monomer:  [9, 9]
# Number of replicas:           2
# COM priority:                 2.485667023043e-05
# Minimum COM separations:      18.132
# Separation priority:          4.900815349859e-05
# Minimum monomer separations:  14.460
# Cutoff priority:              1.793457624196e-06
# Nuclear repulsion energy:     366.0418415899454

memory 7 GB

molecule Dimer_0_314 {
  N           -4.29309621      -3.06837431       5.30516231
  N           -2.15847371      -2.92627296       1.72037448
  H           -0.02545587      -6.35903575       2.22046452
  H           -2.68566968      -6.53260241       6.61445954
  H           -4.74388423      -0.00609006       2.75615968
  H           -1.41045540      -2.24723147       0.00000000
  C           -1.43737991      -5.07504848       2.94065891
  C           -2.76900782      -5.14609916       5.13522880
  C           -3.85955036      -1.77728198       3.21093411
--
  N           14.51737116     -31.55360644      -2.78690955
  N           16.65199366     -31.69570779      -6.37169738
  H           18.78501151     -28.26294500      -5.87160734
  H           16.12479769     -28.08937834      -1.47761232
  H           14.06658315     -34.61589069      -5.33591219
  H           17.40001197     -32.37474928      -8.09207186
  C           17.37308746     -29.54693227      -5.15141295
  C           16.04145955     -29.47588159      -2.95684306
  C           14.95091701     -32.84469877      -4.88113775
units = au
no_com
no_reorient
}

set {
  e_convergence 10
  d_convergence 10
  scf_type df
  mp2_type df
  cc_type df
  freeze_core true
}

energy('sapt0/aug-cc-pvdz')

--------------------------------------------------------------------------

  Memory set to   6.519 GiB by Python driver.

Scratch directory: /scratch/csargent/psi4.31446.79897/

Scratch directory: /scratch/csargent/psi4.31446.79897/

  //>>>>>>>>>>>>>>>>>>>>>>>>>>>>>>>>>>>//
  //              Dimer HF             //
  //<<<<<<<<<<<<<<<<<<<<<<<<<<<<<<<<<<<//


*** tstart() called on ds1
*** at Tue Sep 14 16:49:34 2021

   => Loading Basis Set <=

    Name: AUG-CC-PVDZ
    Role: ORBITAL
    Keyword: BASIS
    atoms 1-2, 10-11 entry N          line   218 file /theoryfs2/ds/csargent/miniconda3/envs/cle/share/psi4/basis/aug-cc-pvdz.gbs
    atoms 3-6, 12-15 entry H          line    40 file /theoryfs2/ds/csargent/miniconda3/envs/cle/share/psi4/basis/aug-cc-pvdz.gbs
    atoms 7-9, 16-18 entry C          line   182 file /theoryfs2/ds/csargent/miniconda3/envs/cle/share/psi4/basis/aug-cc-pvdz.gbs


         ---------------------------------------------------------
                                   SCF
               by Justin Turney, Rob Parrish, Andy Simmonett
                          and Daniel G. A. Smith
                              RHF Reference
                        6 Threads,   6675 MiB Core
         ---------------------------------------------------------

  ==> Geometry <==

    Molecular point group: c1
    Full point group: C1

    Geometry (in Bohr), charge = 0, multiplicity = 1:

       Center              X                  Y                   Z               Mass
    ------------   -----------------  -----------------  -----------------  -----------------
         N           -4.293096210000    -3.068374310000     5.305162310000    14.003074004430
         N           -2.158473710000    -2.926272960000     1.720374480000    14.003074004430
         H           -0.025455870000    -6.359035750000     2.220464520000     1.007825032230
         H           -2.685669680000    -6.532602410000     6.614459540000     1.007825032230
         H           -4.743884230000    -0.006090060000     2.756159680000     1.007825032230
         H           -1.410455400000    -2.247231470000     0.000000000000     1.007825032230
         C           -1.437379910000    -5.075048480000     2.940658910000    12.000000000000
         C           -2.769007820000    -5.146099160000     5.135228800000    12.000000000000
         C           -3.859550360000    -1.777281980000     3.210934110000    12.000000000000
         N           14.517371160000   -31.553606440000    -2.786909550000    14.003074004430
         N           16.651993660000   -31.695707790000    -6.371697380000    14.003074004430
         H           18.785011510000   -28.262945000000    -5.871607340000     1.007825032230
         H           16.124797690000   -28.089378340000    -1.477612320000     1.007825032230
         H           14.066583150000   -34.615890690000    -5.335912190000     1.007825032230
         H           17.400011970000   -32.374749280000    -8.092071860000     1.007825032230
         C           17.373087460000   -29.546932270000    -5.151412950000    12.000000000000
         C           16.041459550000   -29.475881590000    -2.956843060000    12.000000000000
         C           14.950917010000   -32.844698770000    -4.881137750000    12.000000000000

  Running in c1 symmetry.

  Rotational constants: A =      0.02261  B =      0.00071  C =      0.00069 [cm^-1]
  Rotational constants: A =    677.69779  B =     21.29732  C =     20.70668 [MHz]
  Nuclear repulsion =  366.041841714125610

  Charge       = 0
  Multiplicity = 1
  Electrons    = 72
  Nalpha       = 36
  Nbeta        = 36

  ==> Algorithm <==

  SCF Algorithm Type is DF.
  DIIS enabled.
  MOM disabled.
  Fractional occupation disabled.
  Guess Type is SAD.
  Energy threshold   = 1.00e-10
  Density threshold  = 1.00e-10
  Integral threshold = 1.00e-12

  ==> Primary Basis <==

  Basis Set: AUG-CC-PVDZ
    Blend: AUG-CC-PVDZ
    Number of shells: 130
    Number of basis functions: 302
    Number of Cartesian functions: 322
    Spherical Harmonics?: true
    Max angular momentum: 2

   => Loading Basis Set <=

    Name: (AUG-CC-PVDZ AUX)
    Role: JKFIT
    Keyword: DF_BASIS_SCF
    atoms 1-2, 10-11 entry N          line   212 file /theoryfs2/ds/csargent/miniconda3/envs/cle/share/psi4/basis/aug-cc-pvdz-jkfit.gbs
    atoms 3-6, 12-15 entry H          line    70 file /theoryfs2/ds/csargent/miniconda3/envs/cle/share/psi4/basis/aug-cc-pvdz-jkfit.gbs
    atoms 7-9, 16-18 entry C          line   154 file /theoryfs2/ds/csargent/miniconda3/envs/cle/share/psi4/basis/aug-cc-pvdz-jkfit.gbs

  ==> Integral Setup <==

  ==> DiskDFJK: Density-Fitted J/K Matrices <==

    J tasked:                  Yes
    K tasked:                  Yes
    wK tasked:                  No
    OpenMP threads:              6
    Integrals threads:           6
    Memory [MiB]:             5006
    Algorithm:                Core
    Integral Cache:           SAVE
    Schwarz Cutoff:          1E-12
    Fitting Condition:       1E-10

   => Auxiliary Basis Set <=

  Basis Set: (AUG-CC-PVDZ AUX)
    Blend: AUG-CC-PVDZ-JKFIT
    Number of shells: 376
    Number of basis functions: 1116
    Number of Cartesian functions: 1290
    Spherical Harmonics?: true
    Max angular momentum: 3

  Minimum eigenvalue in the overlap matrix is 2.1820196076E-05.
  Reciprocal condition number of the overlap matrix is 1.8380305419E-06.
    Using symmetric orthogonalization.

  ==> Pre-Iterations <==

  SCF Guess: Superposition of Atomic Densities via on-the-fly atomic UHF (no occupation information).

   -------------------------
    Irrep   Nso     Nmo
   -------------------------
     A        302     302
   -------------------------
    Total     302     302
   -------------------------

  ==> Iterations <==

                           Total Energy        Delta E     RMS |[F,P]|

   @DF-RHF iter SAD:  -449.11714339694799   -4.49117e+02   0.00000e+00
   @DF-RHF iter   1:  -449.39608844036024   -2.78945e-01   2.30623e-03 DIIS
   @DF-RHF iter   2:  -449.61060016498806   -2.14512e-01   1.31176e-03 DIIS
   @DF-RHF iter   3:  -449.68336405343769   -7.27639e-02   2.46189e-04 DIIS
   @DF-RHF iter   4:  -449.68673603052332   -3.37198e-03   1.13047e-04 DIIS
   @DF-RHF iter   5:  -449.68733977772462   -6.03747e-04   1.78842e-05 DIIS
   @DF-RHF iter   6:  -449.68737445574197   -3.46780e-05   7.94783e-06 DIIS
   @DF-RHF iter   7:  -449.68738063330221   -6.17756e-06   3.10503e-06 DIIS
   @DF-RHF iter   8:  -449.68738209766991   -1.46437e-06   1.09985e-06 DIIS
   @DF-RHF iter   9:  -449.68738231934014   -2.21670e-07   2.66109e-07 DIIS
   @DF-RHF iter  10:  -449.68738233041671   -1.10766e-08   1.04001e-07 DIIS
   @DF-RHF iter  11:  -449.68738233207716   -1.66045e-09   4.62313e-08 DIIS
   @DF-RHF iter  12:  -449.68738233238264   -3.05477e-10   1.37550e-08 DIIS
   @DF-RHF iter  13:  -449.68738233240896   -2.63185e-11   5.08648e-09 DIIS
   @DF-RHF iter  14:  -449.68738233241254   -3.58114e-12   2.24227e-09 DIIS
   @DF-RHF iter  15:  -449.68738233241288   -3.41061e-13   7.55976e-10 DIIS
   @DF-RHF iter  16:  -449.68738233241254    3.41061e-13   3.45766e-10 DIIS
   @DF-RHF iter  17:  -449.68738233241299   -4.54747e-13   9.53258e-11 DIIS
  Energy and wave function converged.


  ==> Post-Iterations <==

    Orbital Energies [Eh]
    ---------------------

    Doubly Occupied:

       1A    -15.637608     2A    -15.636361     3A    -15.551738
       4A    -15.550501     5A    -11.301443     6A    -11.300204
       7A    -11.263723     8A    -11.262389     9A    -11.246217
      10A    -11.244875    11A     -1.353406    12A     -1.352143
      13A     -1.169633    14A     -1.168377    15A     -1.012647
      16A     -1.011351    17A     -0.824927    18A     -0.823670
      19A     -0.804280    20A     -0.802983    21A     -0.761207
      22A     -0.759933    23A     -0.610639    24A     -0.609360
      25A     -0.604498    26A     -0.603235    27A     -0.602480
      28A     -0.601163    29A     -0.571487    30A     -0.570188
      31A     -0.436003    32A     -0.434762    33A     -0.401000
      34A     -0.399739    35A     -0.321239    36A     -0.319932

    Virtual:

      37A      0.024857    38A      0.025992    39A      0.040999
      40A      0.042408    41A      0.049445    42A      0.050816
      43A      0.061311    44A      0.062697    45A      0.088555
      46A      0.089779    47A      0.100908    48A      0.102102
      49A      0.120295    50A      0.121512    51A      0.124968
      52A      0.126383    53A      0.132908    54A      0.133214
      55A      0.134200    56A      0.134641    57A      0.140358
      58A      0.141729    59A      0.155864    60A      0.157398
      61A      0.158245    62A      0.159289    63A      0.171382
      64A      0.172942    65A      0.177650    66A      0.178885
      67A      0.186724    68A      0.187881    69A      0.211049
      70A      0.212249    71A      0.219690    72A      0.221044
      73A      0.231826    74A      0.233082    75A      0.240842
      76A      0.242150    77A      0.261060    78A      0.262345
      79A      0.267322    80A      0.268530    81A      0.277393
      82A      0.278625    83A      0.301196    84A      0.302464
      85A      0.313971    86A      0.315111    87A      0.337634
      88A      0.338993    89A      0.360914    90A      0.362272
      91A      0.370190    92A      0.371471    93A      0.379256
      94A      0.380520    95A      0.387736    96A      0.389039
      97A      0.396543    98A      0.397854    99A      0.416500
     100A      0.417794   101A      0.428469   102A      0.429744
     103A      0.451515   104A      0.452796   105A      0.465820
     106A      0.467051   107A      0.480686   108A      0.481954
     109A      0.485714   110A      0.487077   111A      0.487602
     112A      0.488925   113A      0.551166   114A      0.552427
     115A      0.555823   116A      0.557144   117A      0.567730
     118A      0.569036   119A      0.575959   120A      0.577163
     121A      0.593697   122A      0.594979   123A      0.598387
     124A      0.599680   125A      0.615530   126A      0.616840
     127A      0.635966   128A      0.637320   129A      0.651963
     130A      0.653256   131A      0.668733   132A      0.670051
     133A      0.670784   134A      0.672088   135A      0.677652
     136A      0.678889   137A      0.683302   138A      0.684681
     139A      0.714148   140A      0.715436   141A      0.725217
     142A      0.726482   143A      0.740695   144A      0.741991
     145A      0.762157   146A      0.763446   147A      0.766857
     148A      0.768145   149A      0.790379   150A      0.791674
     151A      0.793094   152A      0.794288   153A      0.809204
     154A      0.810476   155A      0.859854   156A      0.861138
     157A      0.870871   158A      0.872178   159A      0.885228
     160A      0.886508   161A      0.889236   162A      0.890632
     163A      0.953804   164A      0.955084   165A      0.976431
     166A      0.977672   167A      0.997836   168A      0.999075
     169A      1.010175   170A      1.011430   171A      1.016852
     172A      1.018154   173A      1.030142   174A      1.031400
     175A      1.076824   176A      1.078076   177A      1.084020
     178A      1.085264   179A      1.126432   180A      1.127740
     181A      1.139955   182A      1.141247   183A      1.149024
     184A      1.150295   185A      1.166624   186A      1.167924
     187A      1.216913   188A      1.218175   189A      1.260158
     190A      1.261490   191A      1.301983   192A      1.303310
     193A      1.384497   194A      1.385733   195A      1.397612
     196A      1.398879   197A      1.450609   198A      1.451868
     199A      1.502752   200A      1.504023   201A      1.517864
     202A      1.519139   203A      1.573567   204A      1.573735
     205A      1.574888   206A      1.575049   207A      1.595829
     208A      1.597130   209A      1.651613   210A      1.652892
     211A      1.670945   212A      1.672281   213A      1.704718
     214A      1.706063   215A      1.723963   216A      1.725167
     217A      1.782081   218A      1.783406   219A      1.798508
     220A      1.799838   221A      1.806500   222A      1.807843
     223A      1.864413   224A      1.865684   225A      1.880957
     226A      1.882179   227A      1.923861   228A      1.925108
     229A      1.964447   230A      1.965712   231A      2.021456
     232A      2.022741   233A      2.024884   234A      2.026161
     235A      2.072434   236A      2.073719   237A      2.106506
     238A      2.107803   239A      2.126200   240A      2.127528
     241A      2.135404   242A      2.136734   243A      2.168118
     244A      2.169422   245A      2.178270   246A      2.179550
     247A      2.266541   248A      2.267811   249A      2.275431
     250A      2.276684   251A      2.300400   252A      2.301625
     253A      2.331539   254A      2.332789   255A      2.417196
     256A      2.418525   257A      2.496384   258A      2.497625
     259A      2.513488   260A      2.514756   261A      2.544817
     262A      2.546035   263A      2.585192   264A      2.586493
     265A      2.633219   266A      2.634512   267A      2.733531
     268A      2.734867   269A      2.746492   270A      2.747745
     271A      2.766538   272A      2.767840   273A      2.793608
     274A      2.794878   275A      2.802908   276A      2.804172
     277A      2.837099   278A      2.838367   279A      2.866684
     280A      2.867921   281A      2.952198   282A      2.953464
     283A      2.980331   284A      2.981582   285A      3.050646
     286A      3.051960   287A      3.069363   288A      3.070659
     289A      3.198631   290A      3.199878   291A      3.208253
     292A      3.209529   293A      3.334285   294A      3.335530
     295A      3.354033   296A      3.355304   297A      3.518013
     298A      3.519284   299A      3.767757   300A      3.769024
     301A      4.108467   302A      4.109774

    Final Occupation by Irrep:
              A
    DOCC [    36 ]

  @DF-RHF Final Energy:  -449.68738233241299

   => Energetics <=

    Nuclear Repulsion Energy =            366.0418417141256100
    One-Electron Energy =               -1333.6077599471789199
    Two-Electron Energy =                 517.8785359006402587
    Total Energy =                       -449.6873823324129944

Computation Completed


Properties will be evaluated at   0.000000,   0.000000,   0.000000 [a0]

Properties computed using the SCF density matrix

  Nuclear Dipole Moment: [e a0]
     X:   472.3327      Y: -1246.3913      Z:   -34.3330

  Electronic Dipole Moment: [e a0]
     X:  -470.7244      Y:  1246.3869      Z:    31.6695

  Dipole Moment: [e a0]
     X:     1.6082      Y:    -0.0044      Z:    -2.6635     Total:     3.1114

  Dipole Moment: [D]
     X:     4.0877      Y:    -0.0111      Z:    -6.7699     Total:     7.9083


*** tstop() called on ds1 at Tue Sep 14 16:49:39 2021
Module time:
	user time   =      22.62 seconds =       0.38 minutes
	system time =       0.68 seconds =       0.01 minutes
	total time  =          5 seconds =       0.08 minutes
Total time:
	user time   =      22.62 seconds =       0.38 minutes
	system time =       0.68 seconds =       0.01 minutes
	total time  =          5 seconds =       0.08 minutes

  //>>>>>>>>>>>>>>>>>>>>>>>>>>>>>>>>>>>//
  //            Monomer A HF           //
  //<<<<<<<<<<<<<<<<<<<<<<<<<<<<<<<<<<<//


*** tstart() called on ds1
*** at Tue Sep 14 16:49:39 2021

   => Loading Basis Set <=

    Name: AUG-CC-PVDZ
    Role: ORBITAL
    Keyword: BASIS
    atoms 1-2, 10-11 entry N          line   218 file /theoryfs2/ds/csargent/miniconda3/envs/cle/share/psi4/basis/aug-cc-pvdz.gbs
    atoms 3-6, 12-15 entry H          line    40 file /theoryfs2/ds/csargent/miniconda3/envs/cle/share/psi4/basis/aug-cc-pvdz.gbs
    atoms 7-9, 16-18 entry C          line   182 file /theoryfs2/ds/csargent/miniconda3/envs/cle/share/psi4/basis/aug-cc-pvdz.gbs


         ---------------------------------------------------------
                                   SCF
               by Justin Turney, Rob Parrish, Andy Simmonett
                          and Daniel G. A. Smith
                              RHF Reference
                        6 Threads,   6675 MiB Core
         ---------------------------------------------------------

  ==> Geometry <==

    Molecular point group: c1
    Full point group: C1

    Geometry (in Bohr), charge = 0, multiplicity = 1:

       Center              X                  Y                   Z               Mass
    ------------   -----------------  -----------------  -----------------  -----------------
         N           -4.293096210000    -3.068374310000     5.305162310000    14.003074004430
         N           -2.158473710000    -2.926272960000     1.720374480000    14.003074004430
         H           -0.025455870000    -6.359035750000     2.220464520000     1.007825032230
         H           -2.685669680000    -6.532602410000     6.614459540000     1.007825032230
         H           -4.743884230000    -0.006090060000     2.756159680000     1.007825032230
         H           -1.410455400000    -2.247231470000     0.000000000000     1.007825032230
         C           -1.437379910000    -5.075048480000     2.940658910000    12.000000000000
         C           -2.769007820000    -5.146099160000     5.135228800000    12.000000000000
         C           -3.859550360000    -1.777281980000     3.210934110000    12.000000000000
      Gh(N)          14.517371160000   -31.553606440000    -2.786909550000    14.003074004430
      Gh(N)          16.651993660000   -31.695707790000    -6.371697380000    14.003074004430
      Gh(H)          18.785011510000   -28.262945000000    -5.871607340000     1.007825032230
      Gh(H)          16.124797690000   -28.089378340000    -1.477612320000     1.007825032230
      Gh(H)          14.066583150000   -34.615890690000    -5.335912190000     1.007825032230
      Gh(H)          17.400011970000   -32.374749280000    -8.092071860000     1.007825032230
      Gh(C)          17.373087460000   -29.546932270000    -5.151412950000    12.000000000000
      Gh(C)          16.041459550000   -29.475881590000    -2.956843060000    12.000000000000
      Gh(C)          14.950917010000   -32.844698770000    -4.881137750000    12.000000000000

  Running in c1 symmetry.

  Rotational constants: A =      0.02261  B =      0.00071  C =      0.00069 [cm^-1]
  Rotational constants: A =    677.69779  B =     21.29732  C =     20.70668 [MHz]
  Nuclear repulsion =  164.086695994184396

  Charge       = 0
  Multiplicity = 1
  Electrons    = 36
  Nalpha       = 18
  Nbeta        = 18

  ==> Algorithm <==

  SCF Algorithm Type is DF.
  DIIS enabled.
  MOM disabled.
  Fractional occupation disabled.
  Guess Type is SAD.
  Energy threshold   = 1.00e-10
  Density threshold  = 1.00e-10
  Integral threshold = 1.00e-12

  ==> Primary Basis <==

  Basis Set: AUG-CC-PVDZ
    Blend: AUG-CC-PVDZ
    Number of shells: 130
    Number of basis functions: 302
    Number of Cartesian functions: 322
    Spherical Harmonics?: true
    Max angular momentum: 2

   => Loading Basis Set <=

    Name: (AUG-CC-PVDZ AUX)
    Role: JKFIT
    Keyword: DF_BASIS_SCF
    atoms 1-2, 10-11 entry N          line   212 file /theoryfs2/ds/csargent/miniconda3/envs/cle/share/psi4/basis/aug-cc-pvdz-jkfit.gbs
    atoms 3-6, 12-15 entry H          line    70 file /theoryfs2/ds/csargent/miniconda3/envs/cle/share/psi4/basis/aug-cc-pvdz-jkfit.gbs
    atoms 7-9, 16-18 entry C          line   154 file /theoryfs2/ds/csargent/miniconda3/envs/cle/share/psi4/basis/aug-cc-pvdz-jkfit.gbs

  ==> Integral Setup <==

  ==> DiskDFJK: Density-Fitted J/K Matrices <==

    J tasked:                  Yes
    K tasked:                  Yes
    wK tasked:                  No
    OpenMP threads:              6
    Integrals threads:           6
    Memory [MiB]:             5006
    Algorithm:                Core
    Integral Cache:           LOAD
    Schwarz Cutoff:          1E-12
    Fitting Condition:       1E-10

   => Auxiliary Basis Set <=

  Basis Set: (AUG-CC-PVDZ AUX)
    Blend: AUG-CC-PVDZ-JKFIT
    Number of shells: 376
    Number of basis functions: 1116
    Number of Cartesian functions: 1290
    Spherical Harmonics?: true
    Max angular momentum: 3

  Minimum eigenvalue in the overlap matrix is 2.1820196076E-05.
  Reciprocal condition number of the overlap matrix is 1.8380305419E-06.
    Using symmetric orthogonalization.

  ==> Pre-Iterations <==

  SCF Guess: Superposition of Atomic Densities via on-the-fly atomic UHF (no occupation information).

   -------------------------
    Irrep   Nso     Nmo
   -------------------------
     A        302     302
   -------------------------
    Total     302     302
   -------------------------

  ==> Iterations <==

                           Total Energy        Delta E     RMS |[F,P]|

   @DF-RHF iter SAD:  -224.55857169518012   -2.24559e+02   0.00000e+00
   @DF-RHF iter   1:  -224.69806464884246   -1.39493e-01   1.63067e-03 DIIS
   @DF-RHF iter   2:  -224.80532026705998   -1.07256e-01   9.27384e-04 DIIS
   @DF-RHF iter   3:  -224.84168817092774   -3.63679e-02   1.74019e-04 DIIS
   @DF-RHF iter   4:  -224.84337342299341   -1.68525e-03   7.98972e-05 DIIS
   @DF-RHF iter   5:  -224.84367500370564   -3.01581e-04   1.26452e-05 DIIS
   @DF-RHF iter   6:  -224.84369234073918   -1.73370e-05   5.61871e-06 DIIS
   @DF-RHF iter   7:  -224.84369542880924   -3.08807e-06   2.19503e-06 DIIS
   @DF-RHF iter   8:  -224.84369616072755   -7.31918e-07   7.77587e-07 DIIS
   @DF-RHF iter   9:  -224.84369627152140   -1.10794e-07   1.87961e-07 DIIS
   @DF-RHF iter  10:  -224.84369627705766   -5.53626e-09   7.33125e-08 DIIS
   @DF-RHF iter  11:  -224.84369627788362   -8.25963e-10   3.26918e-08 DIIS
   @DF-RHF iter  12:  -224.84369627803562   -1.51999e-10   9.70884e-09 DIIS
   @DF-RHF iter  13:  -224.84369627804887   -1.32445e-11   3.58840e-09 DIIS
   @DF-RHF iter  14:  -224.84369627805037   -1.50635e-12   1.58275e-09 DIIS
   @DF-RHF iter  15:  -224.84369627805091   -5.40012e-13   5.27556e-10 DIIS
   @DF-RHF iter  16:  -224.84369627805128   -3.69482e-13   2.34517e-10 DIIS
   @DF-RHF iter  17:  -224.84369627805086    4.26326e-13   4.71140e-11 DIIS
  Energy and wave function converged.


  ==> Post-Iterations <==

    Orbital Energies [Eh]
    ---------------------

    Doubly Occupied:

       1A    -15.637071     2A    -15.551216     3A    -11.300916
       4A    -11.263160     5A    -11.245653     6A     -1.352867
       7A     -1.169098     8A     -1.012098     9A     -0.824390
      10A     -0.803731    11A     -0.760666    12A     -0.610096
      13A     -0.603958    14A     -0.601922    15A     -0.570942
      16A     -0.435483    17A     -0.400464    18A     -0.320685

    Virtual:

      19A      0.022117    20A      0.025388    21A      0.039683
      22A      0.041578    23A      0.043118    24A      0.049997
      25A      0.061864    26A      0.067271    27A      0.076084
      28A      0.085776    29A      0.089096    30A      0.097152
      31A      0.101397    32A      0.120830    33A      0.124133
      34A      0.124551    35A      0.125577    36A      0.126367
      37A      0.126813    38A      0.133472    39A      0.133732
      40A      0.133773    41A      0.137655    42A      0.140942
      43A      0.156180    44A      0.156525    45A      0.158702
      46A      0.171988    47A      0.178189    48A      0.187223
      49A      0.191758    50A      0.207325    51A      0.208932
      52A      0.211559    53A      0.212125    54A      0.219901
      55A      0.220268    56A      0.222160    57A      0.232359
      58A      0.232662    59A      0.241408    60A      0.261605
      61A      0.267803    62A      0.271725    63A      0.277911
      64A      0.299012    65A      0.301746    66A      0.306020
      67A      0.314442    68A      0.318805    69A      0.338197
      70A      0.359789    71A      0.361489    72A      0.370745
      73A      0.375013    74A      0.379801    75A      0.388292
      76A      0.393021    77A      0.397097    78A      0.417031
      79A      0.426933    80A      0.429001    81A      0.434709
      82A      0.439953    83A      0.448614    84A      0.451709
      85A      0.452059    86A      0.466350    87A      0.467694
      88A      0.480633    89A      0.481229    90A      0.486283
      91A      0.488151    92A      0.516920    93A      0.520154
      94A      0.535600    95A      0.537821    96A      0.542700
      97A      0.551710    98A      0.555454    99A      0.556382
     100A      0.568280   101A      0.576474   102A      0.578962
     103A      0.587155   104A      0.594249   105A      0.598939
     106A      0.605994   107A      0.611698   108A      0.616080
     109A      0.617944   110A      0.636538   111A      0.639316
     112A      0.652504   113A      0.669282   114A      0.671337
     115A      0.677228   116A      0.678185   117A      0.683356
     118A      0.683874   119A      0.710801   120A      0.714698
     121A      0.725759   122A      0.735663   123A      0.741238
     124A      0.755737   125A      0.762698   126A      0.767400
     127A      0.790929   128A      0.793606   129A      0.797822
     130A      0.809747   131A      0.810062   132A      0.812125
     133A      0.822810   134A      0.836176   135A      0.859186
     136A      0.860398   137A      0.871425   138A      0.885765
     139A      0.886166   140A      0.889823   141A      0.909343
     142A      0.919256   143A      0.926509   144A      0.954351
     145A      0.968349   146A      0.976964   147A      0.991444
     148A      0.998360   149A      1.010706   150A      1.015047
     151A      1.017404   152A      1.030676   153A      1.058591
     154A      1.077353   155A      1.078228   156A      1.084552
     157A      1.103272   158A      1.115601   159A      1.126983
     160A      1.132084   161A      1.140497   162A      1.149565
     163A      1.167170   164A      1.170490   165A      1.173705
     166A      1.197193   167A      1.210208   168A      1.217445
     169A      1.260721   170A      1.277683   171A      1.290292
     172A      1.296633   173A      1.302539   174A      1.312194
     175A      1.317744   176A      1.347224   177A      1.383725
     178A      1.385028   179A      1.398145   180A      1.451143
     181A      1.494568   182A      1.503288   183A      1.515483
     184A      1.518410   185A      1.540972   186A      1.574127
     187A      1.574285   188A      1.596381   189A      1.652159
     190A      1.660572   191A      1.671505   192A      1.705286
     193A      1.724477   194A      1.782643   195A      1.799067
     196A      1.807063   197A      1.864950   198A      1.881478
     199A      1.924391   200A      1.964987   201A      2.022005
     202A      2.025429   203A      2.039297   204A      2.072981
     205A      2.100731   206A      2.107054   207A      2.119134
     208A      2.126759   209A      2.131017   210A      2.135965
     211A      2.149133   212A      2.168670   213A      2.178815
     214A      2.184692   215A      2.229390   216A      2.252413
     217A      2.267082   218A      2.275963   219A      2.300924
     220A      2.308315   221A      2.326886   222A      2.332072
     223A      2.376587   224A      2.405324   225A      2.413029
     226A      2.417758   227A      2.455420   228A      2.470557
     229A      2.493628   230A      2.496919   231A      2.514025
     232A      2.525630   233A      2.545208   234A      2.545345
     235A      2.576580   236A      2.585743   237A      2.599595
     238A      2.633765   239A      2.695948   240A      2.734093
     241A      2.747025   242A      2.767089   243A      2.790198
     244A      2.794149   245A      2.803444   246A      2.828588
     247A      2.837641   248A      2.867213   249A      2.895636
     250A      2.933014   251A      2.949186   252A      2.952738
     253A      2.980862   254A      3.043364   255A      3.051201
     256A      3.069910   257A      3.076019   258A      3.131779
     259A      3.159493   260A      3.182790   261A      3.199163
     262A      3.208795   263A      3.213225   264A      3.334816
     265A      3.340682   266A      3.354571   267A      3.354612
     268A      3.362707   269A      3.458530   270A      3.494352
     271A      3.518552   272A      3.569445   273A      3.608811
     274A      3.707105   275A      3.726582   276A      3.768294
     277A      3.778243   278A      3.798061   279A      3.857784
     280A      3.870617   281A      4.003765   282A      4.109022
     283A      4.212650   284A      4.636600   285A      4.638690
     286A      4.695835   287A      4.771696   288A      4.879955
     289A      5.021290   290A      5.254593   291A      5.373071
     292A      5.494728   293A      5.610226   294A      5.716156
     295A      5.883826   296A      6.089576   297A      6.198071
     298A     18.255302   299A     18.590082   300A     19.300261
     301A     25.311863   302A     25.453154

    Final Occupation by Irrep:
              A
    DOCC [    18 ]

  @DF-RHF Final Energy:  -224.84369627805086

   => Energetics <=

    Nuclear Repulsion Energy =            164.0866959941843959
    One-Electron Energy =                -628.9319563025206890
    Two-Electron Energy =                 240.0015640302854081
    Total Energy =                       -224.8436962780508566

Computation Completed


Properties will be evaluated at   0.000000,   0.000000,   0.000000 [a0]

Properties computed using the SCF density matrix

  Nuclear Dipole Moment: [e a0]
     X:  -102.4221      Y:  -129.0981      Z:   128.4908

  Electronic Dipole Moment: [e a0]
     X:   103.2259      Y:   129.2613      Z:  -129.8232

  Dipole Moment: [e a0]
     X:     0.8038      Y:     0.1633      Z:    -1.3324     Total:     1.5646

  Dipole Moment: [D]
     X:     2.0431      Y:     0.4150      Z:    -3.3867     Total:     3.9769


*** tstop() called on ds1 at Tue Sep 14 16:49:43 2021
Module time:
	user time   =      16.38 seconds =       0.27 minutes
	system time =       0.35 seconds =       0.01 minutes
	total time  =          4 seconds =       0.07 minutes
Total time:
	user time   =      39.07 seconds =       0.65 minutes
	system time =       1.03 seconds =       0.02 minutes
	total time  =          9 seconds =       0.15 minutes

  //>>>>>>>>>>>>>>>>>>>>>>>>>>>>>>>>>>>//
  //            Monomer B HF           //
  //<<<<<<<<<<<<<<<<<<<<<<<<<<<<<<<<<<<//


*** tstart() called on ds1
*** at Tue Sep 14 16:49:43 2021

   => Loading Basis Set <=

    Name: AUG-CC-PVDZ
    Role: ORBITAL
    Keyword: BASIS
    atoms 1-2, 10-11 entry N          line   218 file /theoryfs2/ds/csargent/miniconda3/envs/cle/share/psi4/basis/aug-cc-pvdz.gbs
    atoms 3-6, 12-15 entry H          line    40 file /theoryfs2/ds/csargent/miniconda3/envs/cle/share/psi4/basis/aug-cc-pvdz.gbs
    atoms 7-9, 16-18 entry C          line   182 file /theoryfs2/ds/csargent/miniconda3/envs/cle/share/psi4/basis/aug-cc-pvdz.gbs


         ---------------------------------------------------------
                                   SCF
               by Justin Turney, Rob Parrish, Andy Simmonett
                          and Daniel G. A. Smith
                              RHF Reference
                        6 Threads,   6675 MiB Core
         ---------------------------------------------------------

  ==> Geometry <==

    Molecular point group: c1
    Full point group: C1

    Geometry (in Bohr), charge = 0, multiplicity = 1:

       Center              X                  Y                   Z               Mass
    ------------   -----------------  -----------------  -----------------  -----------------
      Gh(N)          -4.293096210000    -3.068374310000     5.305162310000    14.003074004430
      Gh(N)          -2.158473710000    -2.926272960000     1.720374480000    14.003074004430
      Gh(H)          -0.025455870000    -6.359035750000     2.220464520000     1.007825032230
      Gh(H)          -2.685669680000    -6.532602410000     6.614459540000     1.007825032230
      Gh(H)          -4.743884230000    -0.006090060000     2.756159680000     1.007825032230
      Gh(H)          -1.410455400000    -2.247231470000     0.000000000000     1.007825032230
      Gh(C)          -1.437379910000    -5.075048480000     2.940658910000    12.000000000000
      Gh(C)          -2.769007820000    -5.146099160000     5.135228800000    12.000000000000
      Gh(C)          -3.859550360000    -1.777281980000     3.210934110000    12.000000000000
         N           14.517371160000   -31.553606440000    -2.786909550000    14.003074004430
         N           16.651993660000   -31.695707790000    -6.371697380000    14.003074004430
         H           18.785011510000   -28.262945000000    -5.871607340000     1.007825032230
         H           16.124797690000   -28.089378340000    -1.477612320000     1.007825032230
         H           14.066583150000   -34.615890690000    -5.335912190000     1.007825032230
         H           17.400011970000   -32.374749280000    -8.092071860000     1.007825032230
         C           17.373087460000   -29.546932270000    -5.151412950000    12.000000000000
         C           16.041459550000   -29.475881590000    -2.956843060000    12.000000000000
         C           14.950917010000   -32.844698770000    -4.881137750000    12.000000000000

  Running in c1 symmetry.

  Rotational constants: A =      0.02261  B =      0.00071  C =      0.00069 [cm^-1]
  Rotational constants: A =    677.69779  B =     21.29732  C =     20.70668 [MHz]
  Nuclear repulsion =  164.086695983029358

  Charge       = 0
  Multiplicity = 1
  Electrons    = 36
  Nalpha       = 18
  Nbeta        = 18

  ==> Algorithm <==

  SCF Algorithm Type is DF.
  DIIS enabled.
  MOM disabled.
  Fractional occupation disabled.
  Guess Type is SAD.
  Energy threshold   = 1.00e-10
  Density threshold  = 1.00e-10
  Integral threshold = 1.00e-12

  ==> Primary Basis <==

  Basis Set: AUG-CC-PVDZ
    Blend: AUG-CC-PVDZ
    Number of shells: 130
    Number of basis functions: 302
    Number of Cartesian functions: 322
    Spherical Harmonics?: true
    Max angular momentum: 2

   => Loading Basis Set <=

    Name: (AUG-CC-PVDZ AUX)
    Role: JKFIT
    Keyword: DF_BASIS_SCF
    atoms 1-2, 10-11 entry N          line   212 file /theoryfs2/ds/csargent/miniconda3/envs/cle/share/psi4/basis/aug-cc-pvdz-jkfit.gbs
    atoms 3-6, 12-15 entry H          line    70 file /theoryfs2/ds/csargent/miniconda3/envs/cle/share/psi4/basis/aug-cc-pvdz-jkfit.gbs
    atoms 7-9, 16-18 entry C          line   154 file /theoryfs2/ds/csargent/miniconda3/envs/cle/share/psi4/basis/aug-cc-pvdz-jkfit.gbs

  ==> Integral Setup <==

  ==> DiskDFJK: Density-Fitted J/K Matrices <==

    J tasked:                  Yes
    K tasked:                  Yes
    wK tasked:                  No
    OpenMP threads:              6
    Integrals threads:           6
    Memory [MiB]:             5006
    Algorithm:                Core
    Integral Cache:           LOAD
    Schwarz Cutoff:          1E-12
    Fitting Condition:       1E-10

   => Auxiliary Basis Set <=

  Basis Set: (AUG-CC-PVDZ AUX)
    Blend: AUG-CC-PVDZ-JKFIT
    Number of shells: 376
    Number of basis functions: 1116
    Number of Cartesian functions: 1290
    Spherical Harmonics?: true
    Max angular momentum: 3

  Minimum eigenvalue in the overlap matrix is 2.1820196076E-05.
  Reciprocal condition number of the overlap matrix is 1.8380305419E-06.
    Using symmetric orthogonalization.

  ==> Pre-Iterations <==

  SCF Guess: Superposition of Atomic Densities via on-the-fly atomic UHF (no occupation information).

   -------------------------
    Irrep   Nso     Nmo
   -------------------------
     A        302     302
   -------------------------
    Total     302     302
   -------------------------

  ==> Iterations <==

                           Total Energy        Delta E     RMS |[F,P]|

   @DF-RHF iter SAD:  -224.55857169510324   -2.24559e+02   0.00000e+00
   @DF-RHF iter   1:  -224.69806464891133   -1.39493e-01   1.63067e-03 DIIS
   @DF-RHF iter   2:  -224.80532026767855   -1.07256e-01   9.27384e-04 DIIS
   @DF-RHF iter   3:  -224.84168817177101   -3.63679e-02   1.74019e-04 DIIS
   @DF-RHF iter   4:  -224.84337342385550   -1.68525e-03   7.98972e-05 DIIS
   @DF-RHF iter   5:  -224.84367500456830   -3.01581e-04   1.26452e-05 DIIS
   @DF-RHF iter   6:  -224.84369234160118   -1.73370e-05   5.61871e-06 DIIS
   @DF-RHF iter   7:  -224.84369542967099   -3.08807e-06   2.19503e-06 DIIS
   @DF-RHF iter   8:  -224.84369616158909   -7.31918e-07   7.77587e-07 DIIS
   @DF-RHF iter   9:  -224.84369627238314   -1.10794e-07   1.87961e-07 DIIS
   @DF-RHF iter  10:  -224.84369627791912   -5.53598e-09   7.33125e-08 DIIS
   @DF-RHF iter  11:  -224.84369627874528   -8.26162e-10   3.26918e-08 DIIS
   @DF-RHF iter  12:  -224.84369627889737   -1.52085e-10   9.70884e-09 DIIS
   @DF-RHF iter  13:  -224.84369627891047   -1.31024e-11   3.58840e-09 DIIS
   @DF-RHF iter  14:  -224.84369627891215   -1.67688e-12   1.58275e-09 DIIS
   @DF-RHF iter  15:  -224.84369627891232   -1.70530e-13   5.27556e-10 DIIS
   @DF-RHF iter  16:  -224.84369627891232    0.00000e+00   2.34517e-10 DIIS
   @DF-RHF iter  17:  -224.84369627891269   -3.69482e-13   4.71138e-11 DIIS
  Energy and wave function converged.


  ==> Post-Iterations <==

    Orbital Energies [Eh]
    ---------------------

    Doubly Occupied:

       1A    -15.637071     2A    -15.551216     3A    -11.300916
       4A    -11.263160     5A    -11.245653     6A     -1.352867
       7A     -1.169098     8A     -1.012098     9A     -0.824390
      10A     -0.803731    11A     -0.760666    12A     -0.610096
      13A     -0.603958    14A     -0.601922    15A     -0.570942
      16A     -0.435483    17A     -0.400464    18A     -0.320685

    Virtual:

      19A      0.023421    20A      0.025388    21A      0.040970
      22A      0.041580    23A      0.044488    24A      0.049997
      25A      0.061863    26A      0.068527    27A      0.077352
      28A      0.087064    29A      0.089096    30A      0.098354
      31A      0.101397    32A      0.120831    33A      0.125483
      34A      0.125577    35A      0.125956    36A      0.127732
      37A      0.128163    38A      0.133473    39A      0.133773
      40A      0.134847    41A      0.139021    42A      0.140942
      43A      0.156499    44A      0.157725    45A      0.158699
      46A      0.171989    47A      0.178189    48A      0.187224
      49A      0.192964    50A      0.208552    51A      0.210256
      52A      0.211559    53A      0.213332    54A      0.220268
      55A      0.221132    56A      0.223403    57A      0.232359
      58A      0.233919    59A      0.241408    60A      0.261605
      61A      0.267803    62A      0.272969    63A      0.277911
      64A      0.300199    65A      0.301746    66A      0.307300
      67A      0.314442    68A      0.320117    69A      0.338197
      70A      0.360965    71A      0.361489    72A      0.370745
      73A      0.376455    74A      0.379801    75A      0.388291
      76A      0.394274    77A      0.397097    78A      0.417032
      79A      0.428334    80A      0.429000    81A      0.436123
      82A      0.441257    83A      0.449848    84A      0.452059
      85A      0.452969    86A      0.466350    87A      0.469028
      88A      0.481229    89A      0.481901    90A      0.486283
      91A      0.488151    92A      0.518245    93A      0.521445
      94A      0.536800    95A      0.539069    96A      0.544015
      97A      0.551710    98A      0.556381    99A      0.556642
     100A      0.568280   101A      0.576474   102A      0.580224
     103A      0.588417   104A      0.594249   105A      0.598939
     106A      0.607393   107A      0.612848   108A      0.616080
     109A      0.619177   110A      0.636538   111A      0.640684
     112A      0.652504   113A      0.669282   114A      0.671337
     115A      0.678185   116A      0.678532   117A      0.683874
     118A      0.684681   119A      0.712077   120A      0.714698
     121A      0.725759   122A      0.737030   123A      0.741238
     124A      0.756967   125A      0.762698   126A      0.767400
     127A      0.790929   128A      0.793606   129A      0.799101
     130A      0.809747   131A      0.811368   132A      0.813257
     133A      0.824222   134A      0.837539   135A      0.860396
     136A      0.860547   137A      0.871425   138A      0.885765
     139A      0.887440   140A      0.889823   141A      0.910634
     142A      0.920526   143A      0.927796   144A      0.954351
     145A      0.969606   146A      0.976964   147A      0.992710
     148A      0.998360   149A      1.010706   150A      1.016350
     151A      1.017404   152A      1.030676   153A      1.059939
     154A      1.077353   155A      1.079477   156A      1.084552
     157A      1.104548   158A      1.116923   159A      1.126983
     160A      1.133321   161A      1.140497   162A      1.149565
     163A      1.167170   164A      1.171809   165A      1.174917
     166A      1.198424   167A      1.211448   168A      1.217445
     169A      1.260721   170A      1.278903   171A      1.291506
     172A      1.297877   173A      1.302539   174A      1.313437
     175A      1.318979   176A      1.348458   177A      1.384975
     178A      1.385028   179A      1.398145   180A      1.451143
     181A      1.495781   182A      1.503288   183A      1.516711
     184A      1.518410   185A      1.542239   186A      1.574127
     187A      1.574285   188A      1.596381   189A      1.652159
     190A      1.661838   191A      1.671505   192A      1.705286
     193A      1.724477   194A      1.782643   195A      1.799067
     196A      1.807063   197A      1.864950   198A      1.881477
     199A      1.924391   200A      1.964987   201A      2.022005
     202A      2.025429   203A      2.040666   204A      2.072981
     205A      2.101981   206A      2.107054   207A      2.120336
     208A      2.126759   209A      2.132360   210A      2.135965
     211A      2.150473   212A      2.168670   213A      2.178815
     214A      2.186183   215A      2.230713   216A      2.253754
     217A      2.267082   218A      2.275963   219A      2.300924
     220A      2.309691   221A      2.328134   222A      2.332072
     223A      2.377768   224A      2.406519   225A      2.414423
     226A      2.417758   227A      2.456791   228A      2.471818
     229A      2.494956   230A      2.496919   231A      2.514025
     232A      2.526834   233A      2.545345   234A      2.546495
     235A      2.577946   236A      2.585743   237A      2.600942
     238A      2.633765   239A      2.697291   240A      2.734093
     241A      2.747025   242A      2.767089   243A      2.791358
     244A      2.794149   245A      2.803444   246A      2.829995
     247A      2.837641   248A      2.867213   249A      2.896808
     250A      2.934424   251A      2.950514   252A      2.952738
     253A      2.980862   254A      3.044569   255A      3.051201
     256A      3.069910   257A      3.077291   258A      3.132940
     259A      3.160716   260A      3.184080   261A      3.199163
     262A      3.208795   263A      3.214523   264A      3.334816
     265A      3.341973   266A      3.354572   267A      3.355847
     268A      3.364048   269A      3.459754   270A      3.495555
     271A      3.518552   272A      3.570669   273A      3.610046
     274A      3.708340   275A      3.727845   276A      3.768294
     277A      3.779504   278A      3.799274   279A      3.859102
     280A      3.871828   281A      4.005010   282A      4.109022
     283A      4.213852   284A      4.637902   285A      4.639950
     286A      4.697137   287A      4.772912   288A      4.881198
     289A      5.022566   290A      5.255817   291A      5.374338
     292A      5.495985   293A      5.611559   294A      5.717415
     295A      5.885048   296A      6.090804   297A      6.199282
     298A     18.256708   299A     18.591199   300A     19.301669
     301A     25.313062   302A     25.454366

    Final Occupation by Irrep:
              A
    DOCC [    18 ]

  @DF-RHF Final Energy:  -224.84369627891269

   => Energetics <=

    Nuclear Repulsion Energy =            164.0866959830293581
    One-Electron Energy =                -628.9319562825329513
    Two-Electron Energy =                 240.0015640205909051
    Total Energy =                       -224.8436962789126881

Computation Completed


Properties will be evaluated at   0.000000,   0.000000,   0.000000 [a0]

Properties computed using the SCF density matrix

  Nuclear Dipole Moment: [e a0]
     X:   574.7547      Y: -1117.2932      Z:  -162.8238

  Electronic Dipole Moment: [e a0]
     X:  -573.9509      Y:  1117.1300      Z:   161.4914

  Dipole Moment: [e a0]
     X:     0.8038      Y:    -0.1633      Z:    -1.3324     Total:     1.5646

  Dipole Moment: [D]
     X:     2.0431      Y:    -0.4150      Z:    -3.3867     Total:     3.9769


*** tstop() called on ds1 at Tue Sep 14 16:49:46 2021
Module time:
	user time   =      16.30 seconds =       0.27 minutes
	system time =       0.34 seconds =       0.01 minutes
	total time  =          3 seconds =       0.05 minutes
Total time:
	user time   =      55.40 seconds =       0.92 minutes
	system time =       1.37 seconds =       0.02 minutes
	total time  =         12 seconds =       0.20 minutes
  Constructing Basis Sets for SAPT...

   => Loading Basis Set <=

    Name: (AUG-CC-PVDZ AUX)
    Role: RIFIT
    Keyword: DF_BASIS_SAPT
    atoms 1-2, 10-11 entry N          line   158 file /theoryfs2/ds/csargent/miniconda3/envs/cle/share/psi4/basis/aug-cc-pvdz-ri.gbs
    atoms 3-6, 12-15 entry H          line    30 file /theoryfs2/ds/csargent/miniconda3/envs/cle/share/psi4/basis/aug-cc-pvdz-ri.gbs
    atoms 7-9, 16-18 entry C          line   112 file /theoryfs2/ds/csargent/miniconda3/envs/cle/share/psi4/basis/aug-cc-pvdz-ri.gbs


  //>>>>>>>>>>>>>>>>>>>>>>>>>>>>>>>>>>>//
  //               SAPT0               //
  //<<<<<<<<<<<<<<<<<<<<<<<<<<<<<<<<<<<//


*** tstart() called on ds1
*** at Tue Sep 14 16:49:46 2021

        SAPT0
    Ed Hohenstein
     6 June 2009

      Orbital Information
  --------------------------
    NSO        =       302
    NMO        =       302
    NRI        =       904
    NOCC A     =        18
    NOCC B     =        18
    FOCC A     =         5
    FOCC B     =         5
    NVIR A     =       284
    NVIR B     =       284

    Elst10,r            =     0.000010327052 [Eh]
    Exch10              =     0.000000000000 [Eh]
    Exch10 (S^2)        =     0.000000000000 [Eh]

    Iter     Energy [mEh]          dE [mEh]         Residual      Time [s]
       1      -0.00006679       0.000066793       0.075390057             0
       2      -0.00006447      -0.000002326       0.021813965             0
       3      -0.00007154       0.000007068       0.006182415             1
       4      -0.00007184       0.000000305       0.002835322             1
       5      -0.00007168      -0.000000156       0.001543088             1
       6      -0.00007160      -0.000000081       0.000461489             1
       7      -0.00007163       0.000000025       0.000132604             1
       8      -0.00007164       0.000000008       0.000032772             1
       9      -0.00007163      -0.000000002       0.000012965             1
      10      -0.00007163      -0.000000001       0.000003886             1
      11      -0.00007163       0.000000000       0.000001165             2
      12      -0.00007163      -0.000000000       0.000000380             2

    CHF Iterations converged


    Iter     Energy [mEh]          dE [mEh]         Residual      Time [s]
       1      -0.00004283       0.000042827       0.060897343             0
       2      -0.00004021      -0.000002614       0.016709491             0
       3      -0.00004374       0.000003525       0.007173060             0
       4      -0.00004451       0.000000776       0.001953435             0
       5      -0.00004443      -0.000000084       0.001132739             0
       6      -0.00004434      -0.000000085       0.000360820             0
       7      -0.00004436       0.000000020       0.000113664             1
       8      -0.00004437       0.000000003       0.000026072             1
       9      -0.00004437      -0.000000001       0.000009694             1
      10      -0.00004437      -0.000000000       0.000002744             1
      11      -0.00004437       0.000000000       0.000000740             1

    CHF Iterations converged

    Ind20,r (A<-B)      =    -0.000000071633 [Eh]
    Ind20,r (B<-A)      =    -0.000000044366 [Eh]
    Ind20,r             =    -0.000000115999 [Eh]
    Exch-Ind20,r (A<-B) =     0.000000000000 [Eh]
    Exch-Ind20,r (B<-A) =     0.000000000000 [Eh]
    Exch-Ind20,r        =     0.000000000000 [Eh]
    Disp20              =    -0.000000856809 [Eh]
    Disp20 (SS)         =    -0.000000428405 [Eh]
    Disp20 (OS)         =    -0.000000428405 [Eh]
    Exch-Disp20         =     0.000000000000 [Eh]
    Exch-Disp20 (SS)    =     0.000000000000 [Eh]
    Exch-Disp20 (OS)    =     0.000000000000 [Eh]

    SAPT Results
  --------------------------------------------------------------------------------------------------------
    Electrostatics                  0.01032705 [mEh]       0.00648032 [kcal/mol]       0.02711367 [kJ/mol]
      Elst10,r                      0.01032705 [mEh]       0.00648032 [kcal/mol]       0.02711367 [kJ/mol]

    Exchange                        0.00000000 [mEh]       0.00000000 [kcal/mol]       0.00000000 [kJ/mol]
      Exch10                        0.00000000 [mEh]       0.00000000 [kcal/mol]       0.00000000 [kJ/mol]
      Exch10(S^2)                   0.00000000 [mEh]       0.00000000 [kcal/mol]       0.00000000 [kJ/mol]

    Induction                      -0.00010250 [mEh]      -0.00006432 [kcal/mol]      -0.00026912 [kJ/mol]
      Ind20,r                      -0.00011600 [mEh]      -0.00007279 [kcal/mol]      -0.00030456 [kJ/mol]
      Exch-Ind20,r                  0.00000000 [mEh]       0.00000000 [kcal/mol]       0.00000000 [kJ/mol]
      delta HF,r (2)                0.00001350 [mEh]       0.00000847 [kcal/mol]       0.00003544 [kJ/mol]

    Dispersion                     -0.00085681 [mEh]      -0.00053766 [kcal/mol]      -0.00224955 [kJ/mol]
      Disp20                       -0.00085681 [mEh]      -0.00053766 [kcal/mol]      -0.00224955 [kJ/mol]
      Exch-Disp20                   0.00000000 [mEh]       0.00000000 [kcal/mol]       0.00000000 [kJ/mol]
      Disp20 (SS)                  -0.00042840 [mEh]      -0.00026883 [kcal/mol]      -0.00112478 [kJ/mol]
      Disp20 (OS)                  -0.00042840 [mEh]      -0.00026883 [kcal/mol]      -0.00112478 [kJ/mol]
      Exch-Disp20 (SS)              0.00000000 [mEh]       0.00000000 [kcal/mol]       0.00000000 [kJ/mol]
      Exch-Disp20 (OS)              0.00000000 [mEh]       0.00000000 [kcal/mol]       0.00000000 [kJ/mol]

  Total HF                          0.01022455 [mEh]       0.00641600 [kcal/mol]       0.02684455 [kJ/mol]
  Total SAPT0                       0.00936774 [mEh]       0.00587835 [kcal/mol]       0.02459500 [kJ/mol]

  Special recipe for scaled SAPT0 (see Manual):
    Electrostatics sSAPT0           0.01032705 [mEh]       0.00648032 [kcal/mol]       0.02711367 [kJ/mol]
    Exchange sSAPT0                 0.00000000 [mEh]       0.00000000 [kcal/mol]       0.00000000 [kJ/mol]
    Induction sSAPT0               -0.00010250 [mEh]      -0.00006432 [kcal/mol]      -0.00026912 [kJ/mol]
    Dispersion sSAPT0              -0.00085681 [mEh]      -0.00053766 [kcal/mol]      -0.00224955 [kJ/mol]
  Total sSAPT0                      0.00936774 [mEh]       0.00587835 [kcal/mol]       0.02459500 [kJ/mol]
  --------------------------------------------------------------------------------------------------------

*** tstop() called on ds1 at Tue Sep 14 16:49:55 2021
Module time:
	user time   =      44.11 seconds =       0.74 minutes
	system time =       3.81 seconds =       0.06 minutes
	total time  =          9 seconds =       0.15 minutes
Total time:
	user time   =     100.08 seconds =       1.67 minutes
	system time =       5.19 seconds =       0.09 minutes
	total time  =         21 seconds =       0.35 minutes


Warning! sapt0 does not have an associated derived wavefunction.The returned wavefunction is the dimer SCF wavefunction.


    Psi4 stopped on: Tuesday, 14 September 2021 04:49PM
    Psi4 wall time for execution: 0:00:21.58

*** Psi4 exiting successfully. Buy a developer a beer!
