
    -----------------------------------------------------------------------
          Psi4: An Open-Source Ab Initio Electronic Structure Package
                               Psi4 1.4rc3

                         Git: Rev {HEAD} 080dba6


    D. G. A. Smith, L. A. Burns, A. C. Simmonett, R. M. Parrish,
    M. C. Schieber, R. Galvelis, P. Kraus, H. Kruse, R. Di Remigio,
    A. Alenaizan, A. M. James, S. Lehtola, J. P. Misiewicz, M. Scheurer,
    R. A. Shaw, J. B. Schriber, Y. Xie, Z. L. Glick, D. A. Sirianni,
    J. S. O'Brien, J. M. Waldrop, A. Kumar, E. G. Hohenstein,
    B. P. Pritchard, B. R. Brooks, H. F. Schaefer III, A. Yu. Sokolov,
    K. Patkowski, A. E. DePrince III, U. Bozkaya, R. A. King,
    F. A. Evangelista, J. M. Turney, T. D. Crawford, C. D. Sherrill,
    J. Chem. Phys. 152(18) 184108 (2020). https://doi.org/10.1063/5.0006002

                            Additional Code Authors
    E. T. Seidl, C. L. Janssen, E. F. Valeev, M. L. Leininger,
    J. F. Gonthier, R. M. Richard, H. R. McAlexander, M. Saitow, X. Wang,
    P. Verma, and M. H. Lechner

             Previous Authors, Complete List of Code Contributors,
                       and Citations for Specific Modules
    https://github.com/psi4/psi4/blob/master/codemeta.json
    https://github.com/psi4/psi4/graphs/contributors
    http://psicode.org/psi4manual/master/introduction.html#citing-psifour

    -----------------------------------------------------------------------


    Psi4 started on: Tuesday, 14 September 2021 06:22PM

    Process ID: 5651
    Host:       ds1
    PSIDATADIR: /theoryfs2/ds/csargent/miniconda3/envs/cle/share/psi4
    Memory:     500.0 MiB
    Threads:    6

  ==> Input File <==

--------------------------------------------------------------------------
# PSI4 file produced by CrystaLattE

# Generated from:               imidazole.xyz
# Psithon input for N-mer:      2mer-0+414
# Number of atoms per monomer:  [9, 9]
# Number of replicas:           1
# COM priority:                 2.474838228350e-05
# Minimum COM separations:      18.159
# Separation priority:          3.783777673480e-05
# Minimum monomer separations:  15.763
# Cutoff priority:              1.270283958440e-06
# Nuclear repulsion energy:     365.9091506909955

memory 7 GB

molecule Dimer_0_414 {
  N           -4.29309621      -3.06837431       5.30516231
  N           -2.15847371      -2.92627296       1.72037448
  H           -0.02545587      -6.35903575       2.22046452
  H           -2.68566968      -6.53260241       6.61445954
  H           -4.74388423      -0.00609006       2.75615968
  H           -1.41045540      -2.24723147       0.00000000
  C           -1.43737991      -5.07504848       2.94065891
  C           -2.76900782      -5.14609916       5.13522880
  C           -3.85955036      -1.77728198       3.21093411
--
  N          -22.65854439       3.97173294      27.67488576
  N          -24.79316689       3.82963158      31.25967360
  H          -26.92618474       7.26239438      30.75958356
  H          -24.26597092       7.43596104      26.36558854
  H          -22.20775638       0.90944869      30.22388840
  H          -25.54118520       3.15059010      32.98004808
  C          -25.51426069       5.97840711      30.03938916
  C          -24.18263278       6.04945779      27.84481927
  C          -23.09209025       2.68064061      29.76911396
units = au
no_com
no_reorient
}

set {
  e_convergence 10
  d_convergence 10
  scf_type df
  mp2_type df
  cc_type df
  freeze_core true
}

energy('sapt0/aug-cc-pvdz')

--------------------------------------------------------------------------

  Memory set to   6.519 GiB by Python driver.

Scratch directory: /scratch/csargent/psi4.31446.79897/

Scratch directory: /scratch/csargent/psi4.31446.79897/

  //>>>>>>>>>>>>>>>>>>>>>>>>>>>>>>>>>>>//
  //              Dimer HF             //
  //<<<<<<<<<<<<<<<<<<<<<<<<<<<<<<<<<<<//


*** tstart() called on ds1
*** at Tue Sep 14 18:22:56 2021

   => Loading Basis Set <=

    Name: AUG-CC-PVDZ
    Role: ORBITAL
    Keyword: BASIS
    atoms 1-2, 10-11 entry N          line   218 file /theoryfs2/ds/csargent/miniconda3/envs/cle/share/psi4/basis/aug-cc-pvdz.gbs
    atoms 3-6, 12-15 entry H          line    40 file /theoryfs2/ds/csargent/miniconda3/envs/cle/share/psi4/basis/aug-cc-pvdz.gbs
    atoms 7-9, 16-18 entry C          line   182 file /theoryfs2/ds/csargent/miniconda3/envs/cle/share/psi4/basis/aug-cc-pvdz.gbs


         ---------------------------------------------------------
                                   SCF
               by Justin Turney, Rob Parrish, Andy Simmonett
                          and Daniel G. A. Smith
                              RHF Reference
                        6 Threads,   6675 MiB Core
         ---------------------------------------------------------

  ==> Geometry <==

    Molecular point group: c1
    Full point group: C1

    Geometry (in Bohr), charge = 0, multiplicity = 1:

       Center              X                  Y                   Z               Mass
    ------------   -----------------  -----------------  -----------------  -----------------
         N           -4.293096210000    -3.068374310000     5.305162310000    14.003074004430
         N           -2.158473710000    -2.926272960000     1.720374480000    14.003074004430
         H           -0.025455870000    -6.359035750000     2.220464520000     1.007825032230
         H           -2.685669680000    -6.532602410000     6.614459540000     1.007825032230
         H           -4.743884230000    -0.006090060000     2.756159680000     1.007825032230
         H           -1.410455400000    -2.247231470000     0.000000000000     1.007825032230
         C           -1.437379910000    -5.075048480000     2.940658910000    12.000000000000
         C           -2.769007820000    -5.146099160000     5.135228800000    12.000000000000
         C           -3.859550360000    -1.777281980000     3.210934110000    12.000000000000
         N          -22.658544390000     3.971732940000    27.674885760000    14.003074004430
         N          -24.793166890000     3.829631580000    31.259673600000    14.003074004430
         H          -26.926184740000     7.262394380000    30.759583560000     1.007825032230
         H          -24.265970920000     7.435961040000    26.365588540000     1.007825032230
         H          -22.207756380000     0.909448690000    30.223888400000     1.007825032230
         H          -25.541185200000     3.150590100000    32.980048080000     1.007825032230
         C          -25.514260690000     5.978407110000    30.039389160000    12.000000000000
         C          -24.182632780000     6.049457790000    27.844819270000    12.000000000000
         C          -23.092090250000     2.680640610000    29.769113960000    12.000000000000

  Running in c1 symmetry.

  Rotational constants: A =      0.04036  B =      0.00060  C =      0.00059 [cm^-1]
  Rotational constants: A =   1209.81366  B =     17.84676  C =     17.61252 [MHz]
  Nuclear repulsion =  365.909150714433338

  Charge       = 0
  Multiplicity = 1
  Electrons    = 72
  Nalpha       = 36
  Nbeta        = 36

  ==> Algorithm <==

  SCF Algorithm Type is DF.
  DIIS enabled.
  MOM disabled.
  Fractional occupation disabled.
  Guess Type is SAD.
  Energy threshold   = 1.00e-10
  Density threshold  = 1.00e-10
  Integral threshold = 1.00e-12

  ==> Primary Basis <==

  Basis Set: AUG-CC-PVDZ
    Blend: AUG-CC-PVDZ
    Number of shells: 130
    Number of basis functions: 302
    Number of Cartesian functions: 322
    Spherical Harmonics?: true
    Max angular momentum: 2

   => Loading Basis Set <=

    Name: (AUG-CC-PVDZ AUX)
    Role: JKFIT
    Keyword: DF_BASIS_SCF
    atoms 1-2, 10-11 entry N          line   212 file /theoryfs2/ds/csargent/miniconda3/envs/cle/share/psi4/basis/aug-cc-pvdz-jkfit.gbs
    atoms 3-6, 12-15 entry H          line    70 file /theoryfs2/ds/csargent/miniconda3/envs/cle/share/psi4/basis/aug-cc-pvdz-jkfit.gbs
    atoms 7-9, 16-18 entry C          line   154 file /theoryfs2/ds/csargent/miniconda3/envs/cle/share/psi4/basis/aug-cc-pvdz-jkfit.gbs

  ==> Integral Setup <==

  ==> DiskDFJK: Density-Fitted J/K Matrices <==

    J tasked:                  Yes
    K tasked:                  Yes
    wK tasked:                  No
    OpenMP threads:              6
    Integrals threads:           6
    Memory [MiB]:             5006
    Algorithm:                Core
    Integral Cache:           SAVE
    Schwarz Cutoff:          1E-12
    Fitting Condition:       1E-10

   => Auxiliary Basis Set <=

  Basis Set: (AUG-CC-PVDZ AUX)
    Blend: AUG-CC-PVDZ-JKFIT
    Number of shells: 376
    Number of basis functions: 1116
    Number of Cartesian functions: 1290
    Spherical Harmonics?: true
    Max angular momentum: 3

  Minimum eigenvalue in the overlap matrix is 2.1837034178E-05.
  Reciprocal condition number of the overlap matrix is 1.8394489829E-06.
    Using symmetric orthogonalization.

  ==> Pre-Iterations <==

  SCF Guess: Superposition of Atomic Densities via on-the-fly atomic UHF (no occupation information).

   -------------------------
    Irrep   Nso     Nmo
   -------------------------
     A        302     302
   -------------------------
    Total     302     302
   -------------------------

  ==> Iterations <==

                           Total Energy        Delta E     RMS |[F,P]|

   @DF-RHF iter SAD:  -449.11714338624182   -4.49117e+02   0.00000e+00
   @DF-RHF iter   1:  -449.39584160378610   -2.78698e-01   2.30673e-03 DIIS
   @DF-RHF iter   2:  -449.61038628262543   -2.14545e-01   1.31260e-03 DIIS
   @DF-RHF iter   3:  -449.68325072481827   -7.28644e-02   2.46491e-04 DIIS
   @DF-RHF iter   4:  -449.68662784720607   -3.37712e-03   1.13249e-04 DIIS
   @DF-RHF iter   5:  -449.68723381445722   -6.05967e-04   1.78930e-05 DIIS
   @DF-RHF iter   6:  -449.68726854171871   -3.47273e-05   7.95285e-06 DIIS
   @DF-RHF iter   7:  -449.68727472585374   -6.18414e-06   3.10633e-06 DIIS
   @DF-RHF iter   8:  -449.68727618946491   -1.46361e-06   1.09964e-06 DIIS
   @DF-RHF iter   9:  -449.68727641094540   -2.21480e-07   2.65742e-07 DIIS
   @DF-RHF iter  10:  -449.68727642201998   -1.10746e-08   1.03505e-07 DIIS
   @DF-RHF iter  11:  -449.68727642366980   -1.64982e-09   4.62324e-08 DIIS
   @DF-RHF iter  12:  -449.68727642397283   -3.03032e-10   1.37172e-08 DIIS
   @DF-RHF iter  13:  -449.68727642399898   -2.61480e-11   5.07601e-09 DIIS
   @DF-RHF iter  14:  -449.68727642400199   -3.01270e-12   2.23582e-09 DIIS
   @DF-RHF iter  15:  -449.68727642400376   -1.76215e-12   7.46388e-10 DIIS
   @DF-RHF iter  16:  -449.68727642400307    6.82121e-13   3.32017e-10 DIIS
   @DF-RHF iter  17:  -449.68727642400381   -7.38964e-13   6.67224e-11 DIIS
  Energy and wave function converged.


  ==> Post-Iterations <==

    Orbital Energies [Eh]
    ---------------------

    Doubly Occupied:

       1A    -15.635819     2A    -15.635819     3A    -15.549875
       4A    -15.549875     5A    -11.299609     6A    -11.299609
       7A    -11.261911     8A    -11.261911     9A    -11.244390
      10A    -11.244390    11A     -1.351591    12A     -1.351591
      13A     -1.167804    14A     -1.167804    15A     -1.010828
      16A     -1.010828    17A     -0.823118    18A     -0.823118
      19A     -0.802459    20A     -0.802459    21A     -0.759395
      22A     -0.759395    23A     -0.608820    24A     -0.608820
      25A     -0.602689    26A     -0.602689    27A     -0.600681
      28A     -0.600681    29A     -0.569641    30A     -0.569641
      31A     -0.434117    32A     -0.434117    33A     -0.399157
      34A     -0.399157    35A     -0.319420    36A     -0.319420

    Virtual:

      37A      0.026394    38A      0.026394    39A      0.042674
      40A      0.042674    41A      0.051300    42A      0.051308
      43A      0.063082    44A      0.063088    45A      0.090337
      46A      0.090337    47A      0.102810    48A      0.102811
      49A      0.122090    50A      0.122090    51A      0.126764
      52A      0.126764    53A      0.134559    54A      0.134560
      55A      0.135124    56A      0.135124    57A      0.142195
      58A      0.142195    59A      0.157585    60A      0.157585
      61A      0.159977    62A      0.159981    63A      0.173306
      64A      0.173309    65A      0.179420    66A      0.179420
      67A      0.188468    68A      0.188470    69A      0.212927
      70A      0.212927    71A      0.221492    72A      0.221493
      73A      0.233709    74A      0.233710    75A      0.242622
      76A      0.242622    77A      0.262851    78A      0.262854
      79A      0.269360    80A      0.269361    81A      0.279322
      82A      0.279322    83A      0.302992    84A      0.302992
      85A      0.315894    86A      0.315894    87A      0.339483
      88A      0.339483    89A      0.362681    90A      0.362682
      91A      0.371958    92A      0.371958    93A      0.380992
      94A      0.380993    95A      0.389503    96A      0.389504
      97A      0.398321    98A      0.398329    99A      0.418343
     100A      0.418356   101A      0.430360   102A      0.430360
     103A      0.453312   104A      0.453312   105A      0.467612
     106A      0.467612   107A      0.482449   108A      0.482451
     109A      0.487522   110A      0.487522   111A      0.489446
     112A      0.489446   113A      0.552964   114A      0.552964
     115A      0.557607   116A      0.557610   117A      0.569534
     118A      0.569536   119A      0.577783   120A      0.577783
     121A      0.595480   122A      0.595480   123A      0.600158
     124A      0.600158   125A      0.617377   126A      0.617377
     127A      0.637772   128A      0.637772   129A      0.653800
     130A      0.653800   131A      0.670561   132A      0.670561
     133A      0.672600   134A      0.672600   135A      0.679438
     136A      0.679439   137A      0.685112   138A      0.685112
     139A      0.715953   140A      0.715953   141A      0.726986
     142A      0.726986   143A      0.742520   144A      0.742520
     145A      0.763990   146A      0.763990   147A      0.768696
     148A      0.768697   149A      0.792188   150A      0.792188
     151A      0.794929   152A      0.794929   153A      0.811002
     154A      0.811004   155A      0.861671   156A      0.861672
     157A      0.872689   158A      0.872689   159A      0.887088
     160A      0.887091   161A      0.891049   162A      0.891049
     163A      0.955620   164A      0.955620   165A      0.978233
     166A      0.978233   167A      0.999679   168A      0.999679
     169A      1.012065   170A      1.012065   171A      1.018685
     172A      1.018685   173A      1.031955   174A      1.031955
     175A      1.078689   176A      1.078689   177A      1.085843
     178A      1.085843   179A      1.128264   180A      1.128265
     181A      1.141798   182A      1.141799   183A      1.150838
     184A      1.150838   185A      1.168457   186A      1.168458
     187A      1.218758   188A      1.218758   189A      1.261949
     190A      1.261949   191A      1.303820   192A      1.303820
     193A      1.386297   194A      1.386297   195A      1.399470
     196A      1.399470   197A      1.452438   198A      1.452438
     199A      1.504590   200A      1.504590   201A      1.519674
     202A      1.519674   203A      1.575384   204A      1.575384
     205A      1.575586   206A      1.575587   207A      1.597640
     208A      1.597641   209A      1.653447   210A      1.653447
     211A      1.672769   212A      1.672769   213A      1.706536
     214A      1.706536   215A      1.725796   216A      1.725796
     217A      1.783891   218A      1.783891   219A      1.800329
     220A      1.800330   221A      1.808337   222A      1.808337
     223A      1.866247   224A      1.866249   225A      1.882780
     226A      1.882780   227A      1.925695   228A      1.925695
     229A      1.966270   230A      1.966270   231A      2.023242
     232A      2.023242   233A      2.026681   234A      2.026682
     235A      2.074248   236A      2.074248   237A      2.108325
     238A      2.108326   239A      2.128020   240A      2.128020
     241A      2.137225   242A      2.137225   243A      2.169928
     244A      2.169928   245A      2.180074   246A      2.180075
     247A      2.268352   248A      2.268352   249A      2.277262
     250A      2.277263   251A      2.302218   252A      2.302218
     253A      2.333364   254A      2.333364   255A      2.419006
     256A      2.419006   257A      2.498169   258A      2.498169
     259A      2.515320   260A      2.515320   261A      2.546593
     262A      2.546593   263A      2.587008   264A      2.587008
     265A      2.635046   266A      2.635046   267A      2.735354
     268A      2.735355   269A      2.748325   270A      2.748325
     271A      2.768357   272A      2.768357   273A      2.795430
     274A      2.795430   275A      2.804743   276A      2.804744
     277A      2.838896   278A      2.838896   279A      2.868509
     280A      2.868509   281A      2.954009   282A      2.954010
     283A      2.982174   284A      2.982174   285A      3.052465
     286A      3.052465   287A      3.071185   288A      3.071186
     289A      3.200453   290A      3.200454   291A      3.210073
     292A      3.210074   293A      3.336107   294A      3.336107
     295A      3.355866   296A      3.355866   297A      3.519846
     298A      3.519846   299A      3.769591   300A      3.769592
     301A      4.110269   302A      4.110271

    Final Occupation by Irrep:
              A
    DOCC [    36 ]

  @DF-RHF Final Energy:  -449.68727642400381

   => Energetics <=

    Nuclear Repulsion Energy =            365.9091507144333377
    One-Electron Energy =               -1333.4275599476945899
    Two-Electron Energy =                 517.8311328092574968
    Total Energy =                       -449.6872764240038123

Computation Completed


Properties will be evaluated at   0.000000,   0.000000,   0.000000 [a0]

Properties computed using the SCF density matrix

  Nuclear Dipole Moment: [e a0]
     X:  -970.2591      Y:    32.5209      Z:  1187.2817

  Electronic Dipole Moment: [e a0]
     X:   970.2591      Y:   -32.5209      Z: -1187.2817

  Dipole Moment: [e a0]
     X:     0.0000      Y:     0.0000      Z:    -0.0000     Total:     0.0000

  Dipole Moment: [D]
     X:     0.0000      Y:     0.0000      Z:    -0.0000     Total:     0.0000


*** tstop() called on ds1 at Tue Sep 14 18:23:00 2021
Module time:
	user time   =      22.28 seconds =       0.37 minutes
	system time =       0.58 seconds =       0.01 minutes
	total time  =          4 seconds =       0.07 minutes
Total time:
	user time   =      22.28 seconds =       0.37 minutes
	system time =       0.58 seconds =       0.01 minutes
	total time  =          4 seconds =       0.07 minutes

  //>>>>>>>>>>>>>>>>>>>>>>>>>>>>>>>>>>>//
  //            Monomer A HF           //
  //<<<<<<<<<<<<<<<<<<<<<<<<<<<<<<<<<<<//


*** tstart() called on ds1
*** at Tue Sep 14 18:23:00 2021

   => Loading Basis Set <=

    Name: AUG-CC-PVDZ
    Role: ORBITAL
    Keyword: BASIS
    atoms 1-2, 10-11 entry N          line   218 file /theoryfs2/ds/csargent/miniconda3/envs/cle/share/psi4/basis/aug-cc-pvdz.gbs
    atoms 3-6, 12-15 entry H          line    40 file /theoryfs2/ds/csargent/miniconda3/envs/cle/share/psi4/basis/aug-cc-pvdz.gbs
    atoms 7-9, 16-18 entry C          line   182 file /theoryfs2/ds/csargent/miniconda3/envs/cle/share/psi4/basis/aug-cc-pvdz.gbs


         ---------------------------------------------------------
                                   SCF
               by Justin Turney, Rob Parrish, Andy Simmonett
                          and Daniel G. A. Smith
                              RHF Reference
                        6 Threads,   6675 MiB Core
         ---------------------------------------------------------

  ==> Geometry <==

    Molecular point group: c1
    Full point group: C1

    Geometry (in Bohr), charge = 0, multiplicity = 1:

       Center              X                  Y                   Z               Mass
    ------------   -----------------  -----------------  -----------------  -----------------
         N           -4.293096210000    -3.068374310000     5.305162310000    14.003074004430
         N           -2.158473710000    -2.926272960000     1.720374480000    14.003074004430
         H           -0.025455870000    -6.359035750000     2.220464520000     1.007825032230
         H           -2.685669680000    -6.532602410000     6.614459540000     1.007825032230
         H           -4.743884230000    -0.006090060000     2.756159680000     1.007825032230
         H           -1.410455400000    -2.247231470000     0.000000000000     1.007825032230
         C           -1.437379910000    -5.075048480000     2.940658910000    12.000000000000
         C           -2.769007820000    -5.146099160000     5.135228800000    12.000000000000
         C           -3.859550360000    -1.777281980000     3.210934110000    12.000000000000
      Gh(N)         -22.658544390000     3.971732940000    27.674885760000    14.003074004430
      Gh(N)         -24.793166890000     3.829631580000    31.259673600000    14.003074004430
      Gh(H)         -26.926184740000     7.262394380000    30.759583560000     1.007825032230
      Gh(H)         -24.265970920000     7.435961040000    26.365588540000     1.007825032230
      Gh(H)         -22.207756380000     0.909448690000    30.223888400000     1.007825032230
      Gh(H)         -25.541185200000     3.150590100000    32.980048080000     1.007825032230
      Gh(C)         -25.514260690000     5.978407110000    30.039389160000    12.000000000000
      Gh(C)         -24.182632780000     6.049457790000    27.844819270000    12.000000000000
      Gh(C)         -23.092090250000     2.680640610000    29.769113960000    12.000000000000

  Running in c1 symmetry.

  Rotational constants: A =      0.04036  B =      0.00060  C =      0.00059 [cm^-1]
  Rotational constants: A =   1209.81366  B =     17.84676  C =     17.61252 [MHz]
  Nuclear repulsion =  164.086695994184396

  Charge       = 0
  Multiplicity = 1
  Electrons    = 36
  Nalpha       = 18
  Nbeta        = 18

  ==> Algorithm <==

  SCF Algorithm Type is DF.
  DIIS enabled.
  MOM disabled.
  Fractional occupation disabled.
  Guess Type is SAD.
  Energy threshold   = 1.00e-10
  Density threshold  = 1.00e-10
  Integral threshold = 1.00e-12

  ==> Primary Basis <==

  Basis Set: AUG-CC-PVDZ
    Blend: AUG-CC-PVDZ
    Number of shells: 130
    Number of basis functions: 302
    Number of Cartesian functions: 322
    Spherical Harmonics?: true
    Max angular momentum: 2

   => Loading Basis Set <=

    Name: (AUG-CC-PVDZ AUX)
    Role: JKFIT
    Keyword: DF_BASIS_SCF
    atoms 1-2, 10-11 entry N          line   212 file /theoryfs2/ds/csargent/miniconda3/envs/cle/share/psi4/basis/aug-cc-pvdz-jkfit.gbs
    atoms 3-6, 12-15 entry H          line    70 file /theoryfs2/ds/csargent/miniconda3/envs/cle/share/psi4/basis/aug-cc-pvdz-jkfit.gbs
    atoms 7-9, 16-18 entry C          line   154 file /theoryfs2/ds/csargent/miniconda3/envs/cle/share/psi4/basis/aug-cc-pvdz-jkfit.gbs

  ==> Integral Setup <==

  ==> DiskDFJK: Density-Fitted J/K Matrices <==

    J tasked:                  Yes
    K tasked:                  Yes
    wK tasked:                  No
    OpenMP threads:              6
    Integrals threads:           6
    Memory [MiB]:             5006
    Algorithm:                Core
    Integral Cache:           LOAD
    Schwarz Cutoff:          1E-12
    Fitting Condition:       1E-10

   => Auxiliary Basis Set <=

  Basis Set: (AUG-CC-PVDZ AUX)
    Blend: AUG-CC-PVDZ-JKFIT
    Number of shells: 376
    Number of basis functions: 1116
    Number of Cartesian functions: 1290
    Spherical Harmonics?: true
    Max angular momentum: 3

  Minimum eigenvalue in the overlap matrix is 2.1837034178E-05.
  Reciprocal condition number of the overlap matrix is 1.8394489829E-06.
    Using symmetric orthogonalization.

  ==> Pre-Iterations <==

  SCF Guess: Superposition of Atomic Densities via on-the-fly atomic UHF (no occupation information).

   -------------------------
    Irrep   Nso     Nmo
   -------------------------
     A        302     302
   -------------------------
    Total     302     302
   -------------------------

  ==> Iterations <==

                           Total Energy        Delta E     RMS |[F,P]|

   @DF-RHF iter SAD:  -224.55857169622982   -2.24559e+02   0.00000e+00
   @DF-RHF iter   1:  -224.69806464791108   -1.39493e-01   1.63067e-03 DIIS
   @DF-RHF iter   2:  -224.80532026701414   -1.07256e-01   9.27384e-04 DIIS
   @DF-RHF iter   3:  -224.84168817111714   -3.63679e-02   1.74019e-04 DIIS
   @DF-RHF iter   4:  -224.84337342320521   -1.68525e-03   7.98972e-05 DIIS
   @DF-RHF iter   5:  -224.84367500391934   -3.01581e-04   1.26452e-05 DIIS
   @DF-RHF iter   6:  -224.84369234095291   -1.73370e-05   5.61871e-06 DIIS
   @DF-RHF iter   7:  -224.84369542902223   -3.08807e-06   2.19503e-06 DIIS
   @DF-RHF iter   8:  -224.84369616094060   -7.31918e-07   7.77587e-07 DIIS
   @DF-RHF iter   9:  -224.84369627173439   -1.10794e-07   1.87961e-07 DIIS
   @DF-RHF iter  10:  -224.84369627726991   -5.53553e-09   7.33125e-08 DIIS
   @DF-RHF iter  11:  -224.84369627809650   -8.26589e-10   3.26918e-08 DIIS
   @DF-RHF iter  12:  -224.84369627824836   -1.51857e-10   9.70884e-09 DIIS
   @DF-RHF iter  13:  -224.84369627826152   -1.31593e-11   3.58840e-09 DIIS
   @DF-RHF iter  14:  -224.84369627826342   -1.90425e-12   1.58275e-09 DIIS
   @DF-RHF iter  15:  -224.84369627826385   -4.26326e-13   5.27556e-10 DIIS
   @DF-RHF iter  16:  -224.84369627826419   -3.41061e-13   2.34517e-10 DIIS
   @DF-RHF iter  17:  -224.84369627826388    3.12639e-13   4.71139e-11 DIIS
  Energy and wave function converged.


  ==> Post-Iterations <==

    Orbital Energies [Eh]
    ---------------------

    Doubly Occupied:

       1A    -15.637071     2A    -15.551216     3A    -11.300916
       4A    -11.263160     5A    -11.245653     6A     -1.352867
       7A     -1.169098     8A     -1.012098     9A     -0.824390
      10A     -0.803731    11A     -0.760666    12A     -0.610096
      13A     -0.603958    14A     -0.601922    15A     -0.570942
      16A     -0.435483    17A     -0.400464    18A     -0.320685

    Virtual:

      19A      0.023908    20A      0.025388    21A      0.041471
      22A      0.041580    23A      0.044884    24A      0.049997
      25A      0.061864    26A      0.068930    27A      0.077897
      28A      0.087623    29A      0.089096    30A      0.099002
      31A      0.101397    32A      0.120831    33A      0.125577
      34A      0.125903    35A      0.126419    36A      0.128187
      37A      0.128574    38A      0.133472    39A      0.133773
      40A      0.135567    41A      0.139426    42A      0.140942
      43A      0.156500    44A      0.158047    45A      0.158699
      46A      0.171988    47A      0.178189    48A      0.187224
      49A      0.193443    50A      0.209043    51A      0.210754
      52A      0.211559    53A      0.214096    54A      0.220268
      55A      0.221814    56A      0.224092    57A      0.232359
      58A      0.234459    59A      0.241408    60A      0.261605
      61A      0.267803    62A      0.273512    63A      0.277911
      64A      0.300951    65A      0.301746    66A      0.307882
      67A      0.314442    68A      0.320619    69A      0.338197
      70A      0.361488    71A      0.361636    72A      0.370745
      73A      0.376797    74A      0.379800    75A      0.388291
      76A      0.394841    77A      0.397097    78A      0.417031
      79A      0.428753    80A      0.429000    81A      0.436448
      82A      0.441819    83A      0.450358    84A      0.452059
      85A      0.453444    86A      0.466350    87A      0.469443
      88A      0.481229    89A      0.482472    90A      0.486283
      91A      0.488151    92A      0.518758    93A      0.521925
      94A      0.537425    95A      0.539540    96A      0.544511
      97A      0.551710    98A      0.556382    99A      0.557244
     100A      0.568280   101A      0.576474   102A      0.580701
     103A      0.588963   104A      0.594249   105A      0.598939
     106A      0.607843   107A      0.613548   108A      0.616080
     109A      0.619732   110A      0.636538   111A      0.641118
     112A      0.652504   113A      0.669282   114A      0.671337
     115A      0.678185   116A      0.679021   117A      0.683874
     118A      0.685184   119A      0.712679   120A      0.714698
     121A      0.725758   122A      0.737488   123A      0.741238
     124A      0.757518   125A      0.762698   126A      0.767400
     127A      0.790929   128A      0.793606   129A      0.799612
     130A      0.809747   131A      0.811871   132A      0.813956
     133A      0.824609   134A      0.838042   135A      0.860398
     136A      0.861001   137A      0.871425   138A      0.885765
     139A      0.888019   140A      0.889823   141A      0.911174
     142A      0.921085   143A      0.928359   144A      0.954351
     145A      0.970185   146A      0.976964   147A      0.993305
     148A      0.998360   149A      1.010706   150A      1.016876
     151A      1.017404   152A      1.030676   153A      1.060421
     154A      1.077353   155A      1.080019   156A      1.084552
     157A      1.105098   158A      1.117396   159A      1.126983
     160A      1.133839   161A      1.140497   162A      1.149565
     163A      1.167170   164A      1.172329   165A      1.175539
     166A      1.199026   167A      1.212009   168A      1.217445
     169A      1.260721   170A      1.279573   171A      1.292139
     172A      1.298513   173A      1.302539   174A      1.314032
     175A      1.319564   176A      1.349095   177A      1.385028
     178A      1.385496   179A      1.398145   180A      1.451143
     181A      1.496394   182A      1.503288   183A      1.517310
     184A      1.518410   185A      1.542779   186A      1.574127
     187A      1.574285   188A      1.596381   189A      1.652159
     190A      1.662393   191A      1.671505   192A      1.705286
     193A      1.724477   194A      1.782643   195A      1.799067
     196A      1.807063   197A      1.864950   198A      1.881477
     199A      1.924391   200A      1.964987   201A      2.022005
     202A      2.025429   203A      2.041123   204A      2.072981
     205A      2.102555   206A      2.107054   207A      2.120964
     208A      2.126759   209A      2.132834   210A      2.135965
     211A      2.150949   212A      2.168670   213A      2.178815
     214A      2.186507   215A      2.231164   216A      2.254254
     217A      2.267082   218A      2.275963   219A      2.300924
     220A      2.310125   221A      2.328732   222A      2.332072
     223A      2.378424   224A      2.406982   225A      2.414802
     226A      2.417758   227A      2.457205   228A      2.472359
     229A      2.495405   230A      2.496919   231A      2.514025
     232A      2.527447   233A      2.545345   234A      2.547065
     235A      2.578380   236A      2.585743   237A      2.601422
     238A      2.633765   239A      2.697690   240A      2.734093
     241A      2.747025   242A      2.767089   243A      2.792032
     244A      2.794149   245A      2.803444   246A      2.830420
     247A      2.837641   248A      2.867213   249A      2.897512
     250A      2.934805   251A      2.950954   252A      2.952738
     253A      2.980862   254A      3.045191   255A      3.051201
     256A      3.069910   257A      3.077833   258A      3.133591
     259A      3.161315   260A      3.184652   261A      3.199163
     262A      3.208795   263A      3.215092   264A      3.334816
     265A      3.342490   266A      3.354572   267A      3.356433
     268A      3.364513   269A      3.460330   270A      3.496267
     271A      3.518552   272A      3.571181   273A      3.610737
     274A      3.708905   275A      3.728399   276A      3.768294
     277A      3.780048   278A      3.799821   279A      3.859593
     280A      3.872465   281A      4.005616   282A      4.109022
     283A      4.214451   284A      4.638436   285A      4.640533
     286A      4.697692   287A      4.773516   288A      4.881751
     289A      5.023116   290A      5.256484   291A      5.374916
     292A      5.496617   293A      5.612036   294A      5.717929
     295A      5.885660   296A      6.091322   297A      6.199922
     298A     18.257123   299A     18.591927   300A     19.302080
     301A     25.313813   302A     25.454895

    Final Occupation by Irrep:
              A
    DOCC [    18 ]

  @DF-RHF Final Energy:  -224.84369627826388

   => Energetics <=

    Nuclear Repulsion Energy =            164.0866959941843959
    One-Electron Energy =                -628.9319562974567361
    Two-Electron Energy =                 240.0015640250084346
    Total Energy =                       -224.8436962782638773

Computation Completed


Properties will be evaluated at   0.000000,   0.000000,   0.000000 [a0]

Properties computed using the SCF density matrix

  Nuclear Dipole Moment: [e a0]
     X:  -102.4221      Y:  -129.0981      Z:   128.4908

  Electronic Dipole Moment: [e a0]
     X:   103.2259      Y:   129.2613      Z:  -129.8232

  Dipole Moment: [e a0]
     X:     0.8038      Y:     0.1633      Z:    -1.3324     Total:     1.5646

  Dipole Moment: [D]
     X:     2.0431      Y:     0.4150      Z:    -3.3867     Total:     3.9769


*** tstop() called on ds1 at Tue Sep 14 18:23:04 2021
Module time:
	user time   =      15.75 seconds =       0.26 minutes
	system time =       0.34 seconds =       0.01 minutes
	total time  =          4 seconds =       0.07 minutes
Total time:
	user time   =      38.23 seconds =       0.64 minutes
	system time =       0.93 seconds =       0.02 minutes
	total time  =          8 seconds =       0.13 minutes

  //>>>>>>>>>>>>>>>>>>>>>>>>>>>>>>>>>>>//
  //            Monomer B HF           //
  //<<<<<<<<<<<<<<<<<<<<<<<<<<<<<<<<<<<//


*** tstart() called on ds1
*** at Tue Sep 14 18:23:04 2021

   => Loading Basis Set <=

    Name: AUG-CC-PVDZ
    Role: ORBITAL
    Keyword: BASIS
    atoms 1-2, 10-11 entry N          line   218 file /theoryfs2/ds/csargent/miniconda3/envs/cle/share/psi4/basis/aug-cc-pvdz.gbs
    atoms 3-6, 12-15 entry H          line    40 file /theoryfs2/ds/csargent/miniconda3/envs/cle/share/psi4/basis/aug-cc-pvdz.gbs
    atoms 7-9, 16-18 entry C          line   182 file /theoryfs2/ds/csargent/miniconda3/envs/cle/share/psi4/basis/aug-cc-pvdz.gbs


         ---------------------------------------------------------
                                   SCF
               by Justin Turney, Rob Parrish, Andy Simmonett
                          and Daniel G. A. Smith
                              RHF Reference
                        6 Threads,   6675 MiB Core
         ---------------------------------------------------------

  ==> Geometry <==

    Molecular point group: c1
    Full point group: C1

    Geometry (in Bohr), charge = 0, multiplicity = 1:

       Center              X                  Y                   Z               Mass
    ------------   -----------------  -----------------  -----------------  -----------------
      Gh(N)          -4.293096210000    -3.068374310000     5.305162310000    14.003074004430
      Gh(N)          -2.158473710000    -2.926272960000     1.720374480000    14.003074004430
      Gh(H)          -0.025455870000    -6.359035750000     2.220464520000     1.007825032230
      Gh(H)          -2.685669680000    -6.532602410000     6.614459540000     1.007825032230
      Gh(H)          -4.743884230000    -0.006090060000     2.756159680000     1.007825032230
      Gh(H)          -1.410455400000    -2.247231470000     0.000000000000     1.007825032230
      Gh(C)          -1.437379910000    -5.075048480000     2.940658910000    12.000000000000
      Gh(C)          -2.769007820000    -5.146099160000     5.135228800000    12.000000000000
      Gh(C)          -3.859550360000    -1.777281980000     3.210934110000    12.000000000000
         N          -22.658544390000     3.971732940000    27.674885760000    14.003074004430
         N          -24.793166890000     3.829631580000    31.259673600000    14.003074004430
         H          -26.926184740000     7.262394380000    30.759583560000     1.007825032230
         H          -24.265970920000     7.435961040000    26.365588540000     1.007825032230
         H          -22.207756380000     0.909448690000    30.223888400000     1.007825032230
         H          -25.541185200000     3.150590100000    32.980048080000     1.007825032230
         C          -25.514260690000     5.978407110000    30.039389160000    12.000000000000
         C          -24.182632780000     6.049457790000    27.844819270000    12.000000000000
         C          -23.092090250000     2.680640610000    29.769113960000    12.000000000000

  Running in c1 symmetry.

  Rotational constants: A =      0.04036  B =      0.00060  C =      0.00059 [cm^-1]
  Rotational constants: A =   1209.81366  B =     17.84676  C =     17.61252 [MHz]
  Nuclear repulsion =  164.086695882335874

  Charge       = 0
  Multiplicity = 1
  Electrons    = 36
  Nalpha       = 18
  Nbeta        = 18

  ==> Algorithm <==

  SCF Algorithm Type is DF.
  DIIS enabled.
  MOM disabled.
  Fractional occupation disabled.
  Guess Type is SAD.
  Energy threshold   = 1.00e-10
  Density threshold  = 1.00e-10
  Integral threshold = 1.00e-12

  ==> Primary Basis <==

  Basis Set: AUG-CC-PVDZ
    Blend: AUG-CC-PVDZ
    Number of shells: 130
    Number of basis functions: 302
    Number of Cartesian functions: 322
    Spherical Harmonics?: true
    Max angular momentum: 2

   => Loading Basis Set <=

    Name: (AUG-CC-PVDZ AUX)
    Role: JKFIT
    Keyword: DF_BASIS_SCF
    atoms 1-2, 10-11 entry N          line   212 file /theoryfs2/ds/csargent/miniconda3/envs/cle/share/psi4/basis/aug-cc-pvdz-jkfit.gbs
    atoms 3-6, 12-15 entry H          line    70 file /theoryfs2/ds/csargent/miniconda3/envs/cle/share/psi4/basis/aug-cc-pvdz-jkfit.gbs
    atoms 7-9, 16-18 entry C          line   154 file /theoryfs2/ds/csargent/miniconda3/envs/cle/share/psi4/basis/aug-cc-pvdz-jkfit.gbs

  ==> Integral Setup <==

  ==> DiskDFJK: Density-Fitted J/K Matrices <==

    J tasked:                  Yes
    K tasked:                  Yes
    wK tasked:                  No
    OpenMP threads:              6
    Integrals threads:           6
    Memory [MiB]:             5006
    Algorithm:                Core
    Integral Cache:           LOAD
    Schwarz Cutoff:          1E-12
    Fitting Condition:       1E-10

   => Auxiliary Basis Set <=

  Basis Set: (AUG-CC-PVDZ AUX)
    Blend: AUG-CC-PVDZ-JKFIT
    Number of shells: 376
    Number of basis functions: 1116
    Number of Cartesian functions: 1290
    Spherical Harmonics?: true
    Max angular momentum: 3

  Minimum eigenvalue in the overlap matrix is 2.1837034178E-05.
  Reciprocal condition number of the overlap matrix is 1.8394489829E-06.
    Using symmetric orthogonalization.

  ==> Pre-Iterations <==

  SCF Guess: Superposition of Atomic Densities via on-the-fly atomic UHF (no occupation information).

   -------------------------
    Irrep   Nso     Nmo
   -------------------------
     A        302     302
   -------------------------
    Total     302     302
   -------------------------

  ==> Iterations <==

                           Total Energy        Delta E     RMS |[F,P]|

   @DF-RHF iter SAD:  -224.55857168649342   -2.24559e+02   0.00000e+00
   @DF-RHF iter   1:  -224.69806464810873   -1.39493e-01   1.63067e-03 DIIS
   @DF-RHF iter   2:  -224.80532026686458   -1.07256e-01   9.27384e-04 DIIS
   @DF-RHF iter   3:  -224.84168817083733   -3.63679e-02   1.74019e-04 DIIS
   @DF-RHF iter   4:  -224.84337342293696   -1.68525e-03   7.98972e-05 DIIS
   @DF-RHF iter   5:  -224.84367500365440   -3.01581e-04   1.26452e-05 DIIS
   @DF-RHF iter   6:  -224.84369234068743   -1.73370e-05   5.61871e-06 DIIS
   @DF-RHF iter   7:  -224.84369542875680   -3.08807e-06   2.19503e-06 DIIS
   @DF-RHF iter   8:  -224.84369616067528   -7.31918e-07   7.77587e-07 DIIS
   @DF-RHF iter   9:  -224.84369627146944   -1.10794e-07   1.87961e-07 DIIS
   @DF-RHF iter  10:  -224.84369627700491   -5.53547e-09   7.33125e-08 DIIS
   @DF-RHF iter  11:  -224.84369627783113   -8.26219e-10   3.26918e-08 DIIS
   @DF-RHF iter  12:  -224.84369627798318   -1.52056e-10   9.70884e-09 DIIS
   @DF-RHF iter  13:  -224.84369627799643   -1.32445e-11   3.58840e-09 DIIS
   @DF-RHF iter  14:  -224.84369627799808   -1.64846e-12   1.58275e-09 DIIS
   @DF-RHF iter  15:  -224.84369627799842   -3.41061e-13   5.27556e-10 DIIS
   @DF-RHF iter  16:  -224.84369627799836    5.68434e-14   2.34517e-10 DIIS
   @DF-RHF iter  17:  -224.84369627799865   -2.84217e-13   4.71140e-11 DIIS
  Energy and wave function converged.


  ==> Post-Iterations <==

    Orbital Energies [Eh]
    ---------------------

    Doubly Occupied:

       1A    -15.637071     2A    -15.551216     3A    -11.300916
       4A    -11.263160     5A    -11.245653     6A     -1.352867
       7A     -1.169098     8A     -1.012098     9A     -0.824390
      10A     -0.803731    11A     -0.760666    12A     -0.610096
      13A     -0.603958    14A     -0.601922    15A     -0.570942
      16A     -0.435483    17A     -0.400464    18A     -0.320685

    Virtual:

      19A      0.023908    20A      0.025388    21A      0.041471
      22A      0.041580    23A      0.044884    24A      0.049997
      25A      0.061864    26A      0.068930    27A      0.077897
      28A      0.087623    29A      0.089096    30A      0.099002
      31A      0.101397    32A      0.120831    33A      0.125577
      34A      0.125903    35A      0.126419    36A      0.128187
      37A      0.128574    38A      0.133472    39A      0.133773
      40A      0.135567    41A      0.139426    42A      0.140942
      43A      0.156500    44A      0.158047    45A      0.158699
      46A      0.171988    47A      0.178189    48A      0.187224
      49A      0.193443    50A      0.209043    51A      0.210754
      52A      0.211559    53A      0.214096    54A      0.220268
      55A      0.221814    56A      0.224092    57A      0.232359
      58A      0.234459    59A      0.241408    60A      0.261605
      61A      0.267803    62A      0.273512    63A      0.277911
      64A      0.300951    65A      0.301746    66A      0.307882
      67A      0.314442    68A      0.320619    69A      0.338197
      70A      0.361488    71A      0.361636    72A      0.370745
      73A      0.376797    74A      0.379800    75A      0.388291
      76A      0.394841    77A      0.397097    78A      0.417031
      79A      0.428753    80A      0.429000    81A      0.436448
      82A      0.441819    83A      0.450358    84A      0.452059
      85A      0.453444    86A      0.466350    87A      0.469443
      88A      0.481229    89A      0.482472    90A      0.486283
      91A      0.488151    92A      0.518758    93A      0.521925
      94A      0.537425    95A      0.539540    96A      0.544511
      97A      0.551710    98A      0.556382    99A      0.557244
     100A      0.568280   101A      0.576474   102A      0.580701
     103A      0.588963   104A      0.594249   105A      0.598939
     106A      0.607843   107A      0.613548   108A      0.616080
     109A      0.619732   110A      0.636538   111A      0.641118
     112A      0.652504   113A      0.669282   114A      0.671337
     115A      0.678185   116A      0.679021   117A      0.683874
     118A      0.685184   119A      0.712679   120A      0.714698
     121A      0.725758   122A      0.737488   123A      0.741238
     124A      0.757518   125A      0.762698   126A      0.767400
     127A      0.790929   128A      0.793606   129A      0.799612
     130A      0.809747   131A      0.811871   132A      0.813956
     133A      0.824609   134A      0.838042   135A      0.860398
     136A      0.861001   137A      0.871425   138A      0.885765
     139A      0.888019   140A      0.889823   141A      0.911174
     142A      0.921085   143A      0.928359   144A      0.954351
     145A      0.970185   146A      0.976964   147A      0.993305
     148A      0.998360   149A      1.010706   150A      1.016876
     151A      1.017404   152A      1.030676   153A      1.060421
     154A      1.077353   155A      1.080019   156A      1.084552
     157A      1.105098   158A      1.117396   159A      1.126983
     160A      1.133839   161A      1.140497   162A      1.149565
     163A      1.167170   164A      1.172329   165A      1.175539
     166A      1.199026   167A      1.212009   168A      1.217445
     169A      1.260721   170A      1.279573   171A      1.292139
     172A      1.298513   173A      1.302539   174A      1.314032
     175A      1.319564   176A      1.349095   177A      1.385028
     178A      1.385496   179A      1.398145   180A      1.451143
     181A      1.496394   182A      1.503288   183A      1.517310
     184A      1.518410   185A      1.542779   186A      1.574127
     187A      1.574285   188A      1.596381   189A      1.652159
     190A      1.662393   191A      1.671505   192A      1.705286
     193A      1.724477   194A      1.782643   195A      1.799067
     196A      1.807063   197A      1.864950   198A      1.881477
     199A      1.924391   200A      1.964987   201A      2.022005
     202A      2.025429   203A      2.041123   204A      2.072981
     205A      2.102555   206A      2.107054   207A      2.120964
     208A      2.126759   209A      2.132834   210A      2.135965
     211A      2.150949   212A      2.168670   213A      2.178815
     214A      2.186507   215A      2.231164   216A      2.254254
     217A      2.267082   218A      2.275963   219A      2.300924
     220A      2.310125   221A      2.328732   222A      2.332072
     223A      2.378424   224A      2.406982   225A      2.414802
     226A      2.417758   227A      2.457205   228A      2.472359
     229A      2.495405   230A      2.496919   231A      2.514025
     232A      2.527447   233A      2.545345   234A      2.547065
     235A      2.578380   236A      2.585743   237A      2.601422
     238A      2.633765   239A      2.697690   240A      2.734093
     241A      2.747025   242A      2.767089   243A      2.792032
     244A      2.794149   245A      2.803444   246A      2.830420
     247A      2.837641   248A      2.867213   249A      2.897512
     250A      2.934805   251A      2.950954   252A      2.952738
     253A      2.980862   254A      3.045191   255A      3.051201
     256A      3.069910   257A      3.077833   258A      3.133591
     259A      3.161315   260A      3.184652   261A      3.199163
     262A      3.208795   263A      3.215092   264A      3.334816
     265A      3.342490   266A      3.354572   267A      3.356433
     268A      3.364513   269A      3.460330   270A      3.496267
     271A      3.518552   272A      3.571181   273A      3.610737
     274A      3.708905   275A      3.728399   276A      3.768294
     277A      3.780048   278A      3.799821   279A      3.859593
     280A      3.872465   281A      4.005616   282A      4.109022
     283A      4.214451   284A      4.638436   285A      4.640533
     286A      4.697692   287A      4.773516   288A      4.881751
     289A      5.023116   290A      5.256484   291A      5.374916
     292A      5.496617   293A      5.612036   294A      5.717929
     295A      5.885660   296A      6.091322   297A      6.199922
     298A     18.257123   299A     18.591927   300A     19.302080
     301A     25.313813   302A     25.454895

    Final Occupation by Irrep:
              A
    DOCC [    18 ]

  @DF-RHF Final Energy:  -224.84369627799865

   => Energetics <=

    Nuclear Repulsion Energy =            164.0866958823358743
    One-Electron Energy =                -628.9319560743801958
    Two-Electron Energy =                 240.0015639140456472
    Total Energy =                       -224.8436962779986459

Computation Completed


Properties will be evaluated at   0.000000,   0.000000,   0.000000 [a0]

Properties computed using the SCF density matrix

  Nuclear Dipole Moment: [e a0]
     X:  -867.8370      Y:   161.6190      Z:  1058.7910

  Electronic Dipole Moment: [e a0]
     X:   867.0332      Y:  -161.7823      Z: -1057.4585

  Dipole Moment: [e a0]
     X:    -0.8038      Y:    -0.1633      Z:     1.3324     Total:     1.5646

  Dipole Moment: [D]
     X:    -2.0431      Y:    -0.4150      Z:     3.3867     Total:     3.9769


*** tstop() called on ds1 at Tue Sep 14 18:23:07 2021
Module time:
	user time   =      15.90 seconds =       0.26 minutes
	system time =       0.33 seconds =       0.01 minutes
	total time  =          3 seconds =       0.05 minutes
Total time:
	user time   =      54.31 seconds =       0.91 minutes
	system time =       1.26 seconds =       0.02 minutes
	total time  =         11 seconds =       0.18 minutes
  Constructing Basis Sets for SAPT...

   => Loading Basis Set <=

    Name: (AUG-CC-PVDZ AUX)
    Role: RIFIT
    Keyword: DF_BASIS_SAPT
    atoms 1-2, 10-11 entry N          line   158 file /theoryfs2/ds/csargent/miniconda3/envs/cle/share/psi4/basis/aug-cc-pvdz-ri.gbs
    atoms 3-6, 12-15 entry H          line    30 file /theoryfs2/ds/csargent/miniconda3/envs/cle/share/psi4/basis/aug-cc-pvdz-ri.gbs
    atoms 7-9, 16-18 entry C          line   112 file /theoryfs2/ds/csargent/miniconda3/envs/cle/share/psi4/basis/aug-cc-pvdz-ri.gbs


  //>>>>>>>>>>>>>>>>>>>>>>>>>>>>>>>>>>>//
  //               SAPT0               //
  //<<<<<<<<<<<<<<<<<<<<<<<<<<<<<<<<<<<//


*** tstart() called on ds1
*** at Tue Sep 14 18:23:08 2021

        SAPT0
    Ed Hohenstein
     6 June 2009

      Orbital Information
  --------------------------
    NSO        =       302
    NMO        =       302
    NRI        =       904
    NOCC A     =        18
    NOCC B     =        18
    FOCC A     =         5
    FOCC B     =         5
    NVIR A     =       284
    NVIR B     =       284

    Elst10,r            =     0.000116421626 [Eh]
    Exch10              =     0.000000000000 [Eh]
    Exch10 (S^2)        =     0.000000000000 [Eh]

    Iter     Energy [mEh]          dE [mEh]         Residual      Time [s]
       1      -0.00015533       0.000155334       0.141056924             0
       2      -0.00014322      -0.000012115       0.035955328             0
       3      -0.00016026       0.000017040       0.011610271             0
       4      -0.00016145       0.000001192       0.004133789             0
       5      -0.00016114      -0.000000309       0.001598748             0
       6      -0.00016100      -0.000000146       0.000480606             0
       7      -0.00016103       0.000000032       0.000252813             0
       8      -0.00016106       0.000000029       0.000065724             1
       9      -0.00016105      -0.000000011       0.000019379             1
      10      -0.00016105       0.000000000       0.000006394             1
      11      -0.00016105       0.000000001       0.000001560             1
      12      -0.00016105      -0.000000000       0.000000436             1

    CHF Iterations converged


    Iter     Energy [mEh]          dE [mEh]         Residual      Time [s]
       1      -0.00015533       0.000155334       0.141056924             0
       2      -0.00014322      -0.000012115       0.035955328             0
       3      -0.00016026       0.000017040       0.011610271             0
       4      -0.00016145       0.000001192       0.004133789             1
       5      -0.00016114      -0.000000309       0.001598748             1
       6      -0.00016100      -0.000000146       0.000480606             1
       7      -0.00016103       0.000000032       0.000252813             1
       8      -0.00016106       0.000000029       0.000065724             1
       9      -0.00016105      -0.000000011       0.000019379             1
      10      -0.00016105       0.000000000       0.000006394             1
      11      -0.00016105       0.000000001       0.000001560             1
      12      -0.00016105      -0.000000000       0.000000436             2

    CHF Iterations converged

    Ind20,r (A<-B)      =    -0.000000161049 [Eh]
    Ind20,r (B<-A)      =    -0.000000161049 [Eh]
    Ind20,r             =    -0.000000322098 [Eh]
    Exch-Ind20,r (A<-B) =     0.000000000000 [Eh]
    Exch-Ind20,r (B<-A) =     0.000000000000 [Eh]
    Exch-Ind20,r        =     0.000000000000 [Eh]
    Disp20              =    -0.000000869191 [Eh]
    Disp20 (SS)         =    -0.000000434596 [Eh]
    Disp20 (OS)         =    -0.000000434596 [Eh]
    Exch-Disp20         =     0.000000000000 [Eh]
    Exch-Disp20 (SS)    =     0.000000000000 [Eh]
    Exch-Disp20 (OS)    =     0.000000000000 [Eh]

    SAPT Results
  --------------------------------------------------------------------------------------------------------
    Electrostatics                  0.11642163 [mEh]       0.07305567 [kcal/mol]       0.30566494 [kJ/mol]
      Elst10,r                      0.11642163 [mEh]       0.07305567 [kcal/mol]       0.30566494 [kJ/mol]

    Exchange                        0.00000000 [mEh]       0.00000000 [kcal/mol]       0.00000000 [kJ/mol]
      Exch10                        0.00000000 [mEh]       0.00000000 [kcal/mol]       0.00000000 [kJ/mol]
      Exch10(S^2)                   0.00000000 [mEh]       0.00000000 [kcal/mol]       0.00000000 [kJ/mol]

    Induction                      -0.00028937 [mEh]      -0.00018158 [kcal/mol]      -0.00075973 [kJ/mol]
      Ind20,r                      -0.00032210 [mEh]      -0.00020212 [kcal/mol]      -0.00084567 [kJ/mol]
      Exch-Ind20,r                  0.00000000 [mEh]       0.00000000 [kcal/mol]       0.00000000 [kJ/mol]
      delta HF,r (2)                0.00003273 [mEh]       0.00002054 [kcal/mol]       0.00008593 [kJ/mol]

    Dispersion                     -0.00086919 [mEh]      -0.00054543 [kcal/mol]      -0.00228206 [kJ/mol]
      Disp20                       -0.00086919 [mEh]      -0.00054543 [kcal/mol]      -0.00228206 [kJ/mol]
      Exch-Disp20                   0.00000000 [mEh]       0.00000000 [kcal/mol]       0.00000000 [kJ/mol]
      Disp20 (SS)                  -0.00043460 [mEh]      -0.00027271 [kcal/mol]      -0.00114103 [kJ/mol]
      Disp20 (OS)                  -0.00043460 [mEh]      -0.00027271 [kcal/mol]      -0.00114103 [kJ/mol]
      Exch-Disp20 (SS)              0.00000000 [mEh]       0.00000000 [kcal/mol]       0.00000000 [kJ/mol]
      Exch-Disp20 (OS)              0.00000000 [mEh]       0.00000000 [kcal/mol]       0.00000000 [kJ/mol]

  Total HF                          0.11613226 [mEh]       0.07287409 [kcal/mol]       0.30490520 [kJ/mol]
  Total SAPT0                       0.11526307 [mEh]       0.07232867 [kcal/mol]       0.30262314 [kJ/mol]

  Special recipe for scaled SAPT0 (see Manual):
    Electrostatics sSAPT0           0.11642163 [mEh]       0.07305567 [kcal/mol]       0.30566494 [kJ/mol]
    Exchange sSAPT0                 0.00000000 [mEh]       0.00000000 [kcal/mol]       0.00000000 [kJ/mol]
    Induction sSAPT0               -0.00028937 [mEh]      -0.00018158 [kcal/mol]      -0.00075973 [kJ/mol]
    Dispersion sSAPT0              -0.00086919 [mEh]      -0.00054543 [kcal/mol]      -0.00228206 [kJ/mol]
  Total sSAPT0                      0.11526307 [mEh]       0.07232867 [kcal/mol]       0.30262314 [kJ/mol]
  --------------------------------------------------------------------------------------------------------

*** tstop() called on ds1 at Tue Sep 14 18:23:17 2021
Module time:
	user time   =      45.28 seconds =       0.75 minutes
	system time =       4.01 seconds =       0.07 minutes
	total time  =          9 seconds =       0.15 minutes
Total time:
	user time   =     100.28 seconds =       1.67 minutes
	system time =       5.29 seconds =       0.09 minutes
	total time  =         21 seconds =       0.35 minutes


Warning! sapt0 does not have an associated derived wavefunction.The returned wavefunction is the dimer SCF wavefunction.


    Psi4 stopped on: Tuesday, 14 September 2021 06:23PM
    Psi4 wall time for execution: 0:00:21.51

*** Psi4 exiting successfully. Buy a developer a beer!
