
    -----------------------------------------------------------------------
          Psi4: An Open-Source Ab Initio Electronic Structure Package
                               Psi4 1.4rc3

                         Git: Rev {HEAD} 080dba6


    D. G. A. Smith, L. A. Burns, A. C. Simmonett, R. M. Parrish,
    M. C. Schieber, R. Galvelis, P. Kraus, H. Kruse, R. Di Remigio,
    A. Alenaizan, A. M. James, S. Lehtola, J. P. Misiewicz, M. Scheurer,
    R. A. Shaw, J. B. Schriber, Y. Xie, Z. L. Glick, D. A. Sirianni,
    J. S. O'Brien, J. M. Waldrop, A. Kumar, E. G. Hohenstein,
    B. P. Pritchard, B. R. Brooks, H. F. Schaefer III, A. Yu. Sokolov,
    K. Patkowski, A. E. DePrince III, U. Bozkaya, R. A. King,
    F. A. Evangelista, J. M. Turney, T. D. Crawford, C. D. Sherrill,
    J. Chem. Phys. 152(18) 184108 (2020). https://doi.org/10.1063/5.0006002

                            Additional Code Authors
    E. T. Seidl, C. L. Janssen, E. F. Valeev, M. L. Leininger,
    J. F. Gonthier, R. M. Richard, H. R. McAlexander, M. Saitow, X. Wang,
    P. Verma, and M. H. Lechner

             Previous Authors, Complete List of Code Contributors,
                       and Citations for Specific Modules
    https://github.com/psi4/psi4/blob/master/codemeta.json
    https://github.com/psi4/psi4/graphs/contributors
    http://psicode.org/psi4manual/master/introduction.html#citing-psifour

    -----------------------------------------------------------------------


    Psi4 started on: Tuesday, 14 September 2021 06:29PM

    Process ID: 6059
    Host:       ds1
    PSIDATADIR: /theoryfs2/ds/csargent/miniconda3/envs/cle/share/psi4
    Memory:     500.0 MiB
    Threads:    6

  ==> Input File <==

--------------------------------------------------------------------------
# PSI4 file produced by CrystaLattE

# Generated from:               imidazole.xyz
# Psithon input for N-mer:      2mer-0+144
# Number of atoms per monomer:  [9, 9]
# Number of replicas:           2
# COM priority:                 4.842150158191e-05
# Minimum COM separations:      14.518
# Separation priority:          9.628763615208e-05
# Minimum monomer separations:  11.545
# Cutoff priority:              4.413272052110e-06
# Nuclear repulsion energy:     375.3901953857757

memory 7 GB

molecule Dimer_0_144 {
  N           -4.29309621      -3.06837431       5.30516231
  N           -2.15847371      -2.92627296       1.72037448
  H           -0.02545587      -6.35903575       2.22046452
  H           -2.68566968      -6.53260241       6.61445954
  H           -4.74388423      -0.00609006       2.75615968
  H           -1.41045540      -2.24723147       0.00000000
  C           -1.43737991      -5.07504848       2.94065891
  C           -2.76900782      -5.14609916       5.13522880
  C           -3.85955036      -1.77728198       3.21093411
--
  N          -23.98528718       7.08172265     -10.87898141
  N          -21.85066468       7.22382401     -14.46376924
  H          -19.71764684       3.79106122     -13.96367920
  H          -22.37786065       3.61749456      -9.56968418
  H          -24.43607519      10.14400691     -13.42798405
  H          -21.10264637       7.90286550     -16.18414372
  C          -21.12957088       5.07504848     -13.24348481
  C          -22.46119879       5.00399780     -11.04891492
  C          -23.55174133       8.37281499     -12.97320961
units = au
no_com
no_reorient
}

set {
  e_convergence 10
  d_convergence 10
  scf_type df
  mp2_type df
  cc_type df
  freeze_core true
}

energy('sapt0/aug-cc-pvdz')

--------------------------------------------------------------------------

  Memory set to   6.519 GiB by Python driver.

Scratch directory: /scratch/csargent/psi4.31446.79897/

Scratch directory: /scratch/csargent/psi4.31446.79897/

  //>>>>>>>>>>>>>>>>>>>>>>>>>>>>>>>>>>>//
  //              Dimer HF             //
  //<<<<<<<<<<<<<<<<<<<<<<<<<<<<<<<<<<<//


*** tstart() called on ds1
*** at Tue Sep 14 18:29:48 2021

   => Loading Basis Set <=

    Name: AUG-CC-PVDZ
    Role: ORBITAL
    Keyword: BASIS
    atoms 1-2, 10-11 entry N          line   218 file /theoryfs2/ds/csargent/miniconda3/envs/cle/share/psi4/basis/aug-cc-pvdz.gbs
    atoms 3-6, 12-15 entry H          line    40 file /theoryfs2/ds/csargent/miniconda3/envs/cle/share/psi4/basis/aug-cc-pvdz.gbs
    atoms 7-9, 16-18 entry C          line   182 file /theoryfs2/ds/csargent/miniconda3/envs/cle/share/psi4/basis/aug-cc-pvdz.gbs


         ---------------------------------------------------------
                                   SCF
               by Justin Turney, Rob Parrish, Andy Simmonett
                          and Daniel G. A. Smith
                              RHF Reference
                        6 Threads,   6675 MiB Core
         ---------------------------------------------------------

  ==> Geometry <==

    Molecular point group: c1
    Full point group: C1

    Geometry (in Bohr), charge = 0, multiplicity = 1:

       Center              X                  Y                   Z               Mass
    ------------   -----------------  -----------------  -----------------  -----------------
         N           -4.293096210000    -3.068374310000     5.305162310000    14.003074004430
         N           -2.158473710000    -2.926272960000     1.720374480000    14.003074004430
         H           -0.025455870000    -6.359035750000     2.220464520000     1.007825032230
         H           -2.685669680000    -6.532602410000     6.614459540000     1.007825032230
         H           -4.743884230000    -0.006090060000     2.756159680000     1.007825032230
         H           -1.410455400000    -2.247231470000     0.000000000000     1.007825032230
         C           -1.437379910000    -5.075048480000     2.940658910000    12.000000000000
         C           -2.769007820000    -5.146099160000     5.135228800000    12.000000000000
         C           -3.859550360000    -1.777281980000     3.210934110000    12.000000000000
         N          -23.985287180000     7.081722650000   -10.878981410000    14.003074004430
         N          -21.850664680000     7.223824010000   -14.463769240000    14.003074004430
         H          -19.717646840000     3.791061220000   -13.963679200000     1.007825032230
         H          -22.377860650000     3.617494560000    -9.569684180000     1.007825032230
         H          -24.436075190000    10.144006910000   -13.427984050000     1.007825032230
         H          -21.102646370000     7.902865500000   -16.184143720000     1.007825032230
         C          -21.129570880000     5.075048480000   -13.243484810000    12.000000000000
         C          -22.461198790000     5.003997800000   -11.048914920000    12.000000000000
         C          -23.551741330000     8.372814990000   -12.973209610000    12.000000000000

  Running in c1 symmetry.

  Rotational constants: A =      0.02088  B =      0.00123  C =      0.00118 [cm^-1]
  Rotational constants: A =    625.82565  B =     36.98419  C =     35.25309 [MHz]
  Nuclear repulsion =  375.390195405803468

  Charge       = 0
  Multiplicity = 1
  Electrons    = 72
  Nalpha       = 36
  Nbeta        = 36

  ==> Algorithm <==

  SCF Algorithm Type is DF.
  DIIS enabled.
  MOM disabled.
  Fractional occupation disabled.
  Guess Type is SAD.
  Energy threshold   = 1.00e-10
  Density threshold  = 1.00e-10
  Integral threshold = 1.00e-12

  ==> Primary Basis <==

  Basis Set: AUG-CC-PVDZ
    Blend: AUG-CC-PVDZ
    Number of shells: 130
    Number of basis functions: 302
    Number of Cartesian functions: 322
    Spherical Harmonics?: true
    Max angular momentum: 2

   => Loading Basis Set <=

    Name: (AUG-CC-PVDZ AUX)
    Role: JKFIT
    Keyword: DF_BASIS_SCF
    atoms 1-2, 10-11 entry N          line   212 file /theoryfs2/ds/csargent/miniconda3/envs/cle/share/psi4/basis/aug-cc-pvdz-jkfit.gbs
    atoms 3-6, 12-15 entry H          line    70 file /theoryfs2/ds/csargent/miniconda3/envs/cle/share/psi4/basis/aug-cc-pvdz-jkfit.gbs
    atoms 7-9, 16-18 entry C          line   154 file /theoryfs2/ds/csargent/miniconda3/envs/cle/share/psi4/basis/aug-cc-pvdz-jkfit.gbs

  ==> Integral Setup <==

  ==> DiskDFJK: Density-Fitted J/K Matrices <==

    J tasked:                  Yes
    K tasked:                  Yes
    wK tasked:                  No
    OpenMP threads:              6
    Integrals threads:           6
    Memory [MiB]:             5006
    Algorithm:                Core
    Integral Cache:           SAVE
    Schwarz Cutoff:          1E-12
    Fitting Condition:       1E-10

   => Auxiliary Basis Set <=

  Basis Set: (AUG-CC-PVDZ AUX)
    Blend: AUG-CC-PVDZ-JKFIT
    Number of shells: 376
    Number of basis functions: 1116
    Number of Cartesian functions: 1290
    Spherical Harmonics?: true
    Max angular momentum: 3

  Minimum eigenvalue in the overlap matrix is 2.1803965591E-05.
  Reciprocal condition number of the overlap matrix is 1.8366554136E-06.
    Using symmetric orthogonalization.

  ==> Pre-Iterations <==

  SCF Guess: Superposition of Atomic Densities via on-the-fly atomic UHF (no occupation information).

   -------------------------
    Irrep   Nso     Nmo
   -------------------------
     A        302     302
   -------------------------
    Total     302     302
   -------------------------

  ==> Iterations <==

                           Total Energy        Delta E     RMS |[F,P]|

   @DF-RHF iter SAD:  -449.11714339158891   -4.49117e+02   0.00000e+00
   @DF-RHF iter   1:  -449.39587664465091   -2.78733e-01   2.30669e-03 DIIS
   @DF-RHF iter   2:  -449.61041298037298   -2.14536e-01   1.31257e-03 DIIS
   @DF-RHF iter   3:  -449.68327632371279   -7.28633e-02   2.46491e-04 DIIS
   @DF-RHF iter   4:  -449.68665345645297   -3.37713e-03   1.13250e-04 DIIS
   @DF-RHF iter   5:  -449.68725943180368   -6.05975e-04   1.78896e-05 DIIS
   @DF-RHF iter   6:  -449.68729414610232   -3.47143e-05   7.95151e-06 DIIS
   @DF-RHF iter   7:  -449.68730032675069   -6.18065e-06   3.10520e-06 DIIS
   @DF-RHF iter   8:  -449.68730178956690   -1.46282e-06   1.09936e-06 DIIS
   @DF-RHF iter   9:  -449.68730201089386   -2.21327e-07   2.65525e-07 DIIS
   @DF-RHF iter  10:  -449.68730202195928   -1.10654e-08   1.03284e-07 DIIS
   @DF-RHF iter  11:  -449.68730202360376   -1.64448e-09   4.62101e-08 DIIS
   @DF-RHF iter  12:  -449.68730202390645   -3.02691e-10   1.36957e-08 DIIS
   @DF-RHF iter  13:  -449.68730202393272   -2.62617e-11   5.07057e-09 DIIS
   @DF-RHF iter  14:  -449.68730202393596   -3.24007e-12   2.23367e-09 DIIS
   @DF-RHF iter  15:  -449.68730202393664   -6.82121e-13   7.46413e-10 DIIS
   @DF-RHF iter  16:  -449.68730202393635    2.84217e-13   3.32146e-10 DIIS
   @DF-RHF iter  17:  -449.68730202393749   -1.13687e-12   6.86878e-11 DIIS
  Energy and wave function converged.


  ==> Post-Iterations <==

    Orbital Energies [Eh]
    ---------------------

    Doubly Occupied:

       1A    -15.637529     2A    -15.636818     3A    -15.551596
       4A    -15.550882     5A    -11.301331     6A    -11.300602
       7A    -11.263615     8A    -11.262894     9A    -11.246081
      10A    -11.245379    11A     -1.353304    12A     -1.352588
      13A     -1.169518    14A     -1.168806    15A     -1.012536
      16A     -1.011817    17A     -0.824828    18A     -0.824118
      19A     -0.804158    20A     -0.803452    21A     -0.761113
      22A     -0.760381    23A     -0.610520    24A     -0.609815
      25A     -0.604401    26A     -0.603684    27A     -0.602402
      28A     -0.601663    29A     -0.571329    30A     -0.570632
      31A     -0.435846    32A     -0.435136    33A     -0.400870
      34A     -0.400165    35A     -0.321129    36A     -0.320405

    Virtual:

      37A      0.024646    38A      0.025363    39A      0.040389
      40A      0.042177    41A      0.049370    42A      0.050819
      43A      0.061113    44A      0.062634    45A      0.088594
      46A      0.089402    47A      0.101018    48A      0.101795
      49A      0.120359    50A      0.121122    51A      0.125059
      52A      0.125789    53A      0.132803    54A      0.133381
      55A      0.133674    56A      0.134118    57A      0.140481
      58A      0.141246    59A      0.155002    60A      0.156643
      61A      0.157927    62A      0.159910    63A      0.171542
      64A      0.173091    65A      0.177709    66A      0.178423
      67A      0.186608    68A      0.188023    69A      0.211194
      70A      0.211918    71A      0.219785    72A      0.220572
      73A      0.231976    74A      0.232675    75A      0.240896
      76A      0.241656    77A      0.261100    78A      0.261862
      79A      0.267634    80A      0.268263    81A      0.277613
      82A      0.278335    83A      0.301267    84A      0.302032
      85A      0.314153    86A      0.314871    87A      0.337825
      88A      0.338468    89A      0.360977    90A      0.361700
      91A      0.370264    92A      0.370972    93A      0.379306
      94A      0.379982    95A      0.387678    96A      0.388625
      97A      0.396608    98A      0.397356    99A      0.415395
     100A      0.418959   101A      0.428763   102A      0.429354
     103A      0.451622   104A      0.452375   105A      0.465940
     106A      0.466627   107A      0.480715   108A      0.481475
     109A      0.485835   110A      0.486544   111A      0.487778
     112A      0.488453   113A      0.551256   114A      0.551984
     115A      0.555655   116A      0.556956   117A      0.567814
     118A      0.568590   119A      0.576067   120A      0.576788
     121A      0.593754   122A      0.594520   123A      0.598438
     124A      0.599208   125A      0.615679   126A      0.616394
     127A      0.636067   128A      0.636797   129A      0.652124
     130A      0.652819   131A      0.668869   132A      0.669577
     133A      0.670912   134A      0.671618   135A      0.677752
     136A      0.678442   137A      0.683460   138A      0.684137
     139A      0.714246   140A      0.714956   141A      0.725259
     142A      0.725993   143A      0.740840   144A      0.741536
     145A      0.762277   146A      0.763009   147A      0.766968
     148A      0.767756   149A      0.790487   150A      0.791190
     151A      0.793198   152A      0.793947   153A      0.809301
     154A      0.810013   155A      0.859877   156A      0.860836
     157A      0.870992   158A      0.871720   159A      0.885365
     160A      0.886092   161A      0.889364   162A      0.890073
     163A      0.953908   164A      0.954637   165A      0.976517
     166A      0.977243   167A      0.997951   168A      0.998678
     169A      1.010348   170A      1.011049   171A      1.016980
     172A      1.017697   173A      1.030235   174A      1.030965
     175A      1.076966   176A      1.077702   177A      1.084124
     178A      1.084846   179A      1.126545   180A      1.127315
     181A      1.140081   182A      1.140850   183A      1.149128
     184A      1.149845   185A      1.166757   186A      1.167498
     187A      1.217042   188A      1.217759   189A      1.260229
     190A      1.260973   191A      1.302132   192A      1.302863
     193A      1.384586   194A      1.385307   195A      1.397749
     196A      1.398478   197A      1.450733   198A      1.451439
     199A      1.502887   200A      1.503608   201A      1.517965
     202A      1.518680   203A      1.573679   204A      1.573884
     205A      1.574394   206A      1.574602   207A      1.595916
     208A      1.596704   209A      1.651738   210A      1.652450
     211A      1.671069   212A      1.671778   213A      1.704872
     214A      1.705563   215A      1.724072   216A      1.724815
     217A      1.782174   218A      1.782910   219A      1.798599
     220A      1.799395   221A      1.806656   222A      1.807358
     223A      1.864445   224A      1.865386   225A      1.881059
     226A      1.881803   227A      1.923977   228A      1.924698
     229A      1.964561   230A      1.965271   231A      2.021528
     232A      2.022258   233A      2.024978   234A      2.025701
     235A      2.072543   236A      2.073254   237A      2.106613
     238A      2.107339   239A      2.126324   240A      2.127031
     241A      2.135531   242A      2.136238   243A      2.168227
     244A      2.168948   245A      2.178368   246A      2.179087
     247A      2.266655   248A      2.267357   249A      2.275561
     250A      2.276266   251A      2.300507   252A      2.301230
     253A      2.331649   254A      2.332364   255A      2.417307
     256A      2.418016   257A      2.496455   258A      2.497173
     259A      2.513618   260A      2.514325   261A      2.544880
     262A      2.545601   263A      2.585294   264A      2.586018
     265A      2.633338   266A      2.634054   267A      2.733664
     268A      2.734369   269A      2.746606   270A      2.747324
     271A      2.766648   272A      2.767375   273A      2.793721
     274A      2.794430   275A      2.803041   276A      2.803746
     277A      2.837175   278A      2.837932   279A      2.866791
     280A      2.867504   281A      2.952303   282A      2.953015
     283A      2.980457   284A      2.981172   285A      3.050761
     286A      3.051476   287A      3.069479   288A      3.070209
     289A      3.198732   290A      3.199472   291A      3.208373
     292A      3.209082   293A      3.334392   294A      3.335106
     295A      3.354153   296A      3.354884   297A      3.518133
     298A      3.518848   299A      3.767877   300A      3.768609
     301A      4.108556   302A      4.109307

    Final Occupation by Irrep:
              A
    DOCC [    36 ]

  @DF-RHF Final Energy:  -449.68730202393749

   => Energetics <=

    Nuclear Repulsion Energy =            375.3901954058034676
    One-Electron Energy =               -1352.2923025752893409
    Two-Electron Energy =                 527.2148051455483255
    Total Energy =                       -449.6873020239374910

Computation Completed


Properties will be evaluated at   0.000000,   0.000000,   0.000000 [a0]

Properties computed using the SCF density matrix

  Nuclear Dipole Moment: [e a0]
     X:  -913.7630      Y:   107.2074      Z:  -325.6476

  Electronic Dipole Moment: [e a0]
     X:   915.3644      Y:  -106.8796      Z:   322.9874

  Dipole Moment: [e a0]
     X:     1.6014      Y:     0.3277      Z:    -2.6603     Total:     3.1223

  Dipole Moment: [D]
     X:     4.0703      Y:     0.8330      Z:    -6.7617     Total:     7.9361


*** tstop() called on ds1 at Tue Sep 14 18:29:53 2021
Module time:
	user time   =      23.88 seconds =       0.40 minutes
	system time =       0.56 seconds =       0.01 minutes
	total time  =          5 seconds =       0.08 minutes
Total time:
	user time   =      23.88 seconds =       0.40 minutes
	system time =       0.56 seconds =       0.01 minutes
	total time  =          5 seconds =       0.08 minutes

  //>>>>>>>>>>>>>>>>>>>>>>>>>>>>>>>>>>>//
  //            Monomer A HF           //
  //<<<<<<<<<<<<<<<<<<<<<<<<<<<<<<<<<<<//


*** tstart() called on ds1
*** at Tue Sep 14 18:29:53 2021

   => Loading Basis Set <=

    Name: AUG-CC-PVDZ
    Role: ORBITAL
    Keyword: BASIS
    atoms 1-2, 10-11 entry N          line   218 file /theoryfs2/ds/csargent/miniconda3/envs/cle/share/psi4/basis/aug-cc-pvdz.gbs
    atoms 3-6, 12-15 entry H          line    40 file /theoryfs2/ds/csargent/miniconda3/envs/cle/share/psi4/basis/aug-cc-pvdz.gbs
    atoms 7-9, 16-18 entry C          line   182 file /theoryfs2/ds/csargent/miniconda3/envs/cle/share/psi4/basis/aug-cc-pvdz.gbs


         ---------------------------------------------------------
                                   SCF
               by Justin Turney, Rob Parrish, Andy Simmonett
                          and Daniel G. A. Smith
                              RHF Reference
                        6 Threads,   6675 MiB Core
         ---------------------------------------------------------

  ==> Geometry <==

    Molecular point group: c1
    Full point group: C1

    Geometry (in Bohr), charge = 0, multiplicity = 1:

       Center              X                  Y                   Z               Mass
    ------------   -----------------  -----------------  -----------------  -----------------
         N           -4.293096210000    -3.068374310000     5.305162310000    14.003074004430
         N           -2.158473710000    -2.926272960000     1.720374480000    14.003074004430
         H           -0.025455870000    -6.359035750000     2.220464520000     1.007825032230
         H           -2.685669680000    -6.532602410000     6.614459540000     1.007825032230
         H           -4.743884230000    -0.006090060000     2.756159680000     1.007825032230
         H           -1.410455400000    -2.247231470000     0.000000000000     1.007825032230
         C           -1.437379910000    -5.075048480000     2.940658910000    12.000000000000
         C           -2.769007820000    -5.146099160000     5.135228800000    12.000000000000
         C           -3.859550360000    -1.777281980000     3.210934110000    12.000000000000
      Gh(N)         -23.985287180000     7.081722650000   -10.878981410000    14.003074004430
      Gh(N)         -21.850664680000     7.223824010000   -14.463769240000    14.003074004430
      Gh(H)         -19.717646840000     3.791061220000   -13.963679200000     1.007825032230
      Gh(H)         -22.377860650000     3.617494560000    -9.569684180000     1.007825032230
      Gh(H)         -24.436075190000    10.144006910000   -13.427984050000     1.007825032230
      Gh(H)         -21.102646370000     7.902865500000   -16.184143720000     1.007825032230
      Gh(C)         -21.129570880000     5.075048480000   -13.243484810000    12.000000000000
      Gh(C)         -22.461198790000     5.003997800000   -11.048914920000    12.000000000000
      Gh(C)         -23.551741330000     8.372814990000   -12.973209610000    12.000000000000

  Running in c1 symmetry.

  Rotational constants: A =      0.02088  B =      0.00123  C =      0.00118 [cm^-1]
  Rotational constants: A =    625.82565  B =     36.98419  C =     35.25309 [MHz]
  Nuclear repulsion =  164.086695994184396

  Charge       = 0
  Multiplicity = 1
  Electrons    = 36
  Nalpha       = 18
  Nbeta        = 18

  ==> Algorithm <==

  SCF Algorithm Type is DF.
  DIIS enabled.
  MOM disabled.
  Fractional occupation disabled.
  Guess Type is SAD.
  Energy threshold   = 1.00e-10
  Density threshold  = 1.00e-10
  Integral threshold = 1.00e-12

  ==> Primary Basis <==

  Basis Set: AUG-CC-PVDZ
    Blend: AUG-CC-PVDZ
    Number of shells: 130
    Number of basis functions: 302
    Number of Cartesian functions: 322
    Spherical Harmonics?: true
    Max angular momentum: 2

   => Loading Basis Set <=

    Name: (AUG-CC-PVDZ AUX)
    Role: JKFIT
    Keyword: DF_BASIS_SCF
    atoms 1-2, 10-11 entry N          line   212 file /theoryfs2/ds/csargent/miniconda3/envs/cle/share/psi4/basis/aug-cc-pvdz-jkfit.gbs
    atoms 3-6, 12-15 entry H          line    70 file /theoryfs2/ds/csargent/miniconda3/envs/cle/share/psi4/basis/aug-cc-pvdz-jkfit.gbs
    atoms 7-9, 16-18 entry C          line   154 file /theoryfs2/ds/csargent/miniconda3/envs/cle/share/psi4/basis/aug-cc-pvdz-jkfit.gbs

  ==> Integral Setup <==

  ==> DiskDFJK: Density-Fitted J/K Matrices <==

    J tasked:                  Yes
    K tasked:                  Yes
    wK tasked:                  No
    OpenMP threads:              6
    Integrals threads:           6
    Memory [MiB]:             5006
    Algorithm:                Core
    Integral Cache:           LOAD
    Schwarz Cutoff:          1E-12
    Fitting Condition:       1E-10

   => Auxiliary Basis Set <=

  Basis Set: (AUG-CC-PVDZ AUX)
    Blend: AUG-CC-PVDZ-JKFIT
    Number of shells: 376
    Number of basis functions: 1116
    Number of Cartesian functions: 1290
    Spherical Harmonics?: true
    Max angular momentum: 3

  Minimum eigenvalue in the overlap matrix is 2.1803965591E-05.
  Reciprocal condition number of the overlap matrix is 1.8366554136E-06.
    Using symmetric orthogonalization.

  ==> Pre-Iterations <==

  SCF Guess: Superposition of Atomic Densities via on-the-fly atomic UHF (no occupation information).

   -------------------------
    Irrep   Nso     Nmo
   -------------------------
     A        302     302
   -------------------------
    Total     302     302
   -------------------------

  ==> Iterations <==

                           Total Energy        Delta E     RMS |[F,P]|

   @DF-RHF iter SAD:  -224.55857169583712   -2.24559e+02   0.00000e+00
   @DF-RHF iter   1:  -224.69806466230438   -1.39493e-01   1.63067e-03 DIIS
   @DF-RHF iter   2:  -224.80532028302579   -1.07256e-01   9.27384e-04 DIIS
   @DF-RHF iter   3:  -224.84168818730069   -3.63679e-02   1.74019e-04 DIIS
   @DF-RHF iter   4:  -224.84337343954132   -1.68525e-03   7.98972e-05 DIIS
   @DF-RHF iter   5:  -224.84367502025404   -3.01581e-04   1.26452e-05 DIIS
   @DF-RHF iter   6:  -224.84369235728681   -1.73370e-05   5.61871e-06 DIIS
   @DF-RHF iter   7:  -224.84369544535548   -3.08807e-06   2.19503e-06 DIIS
   @DF-RHF iter   8:  -224.84369617727361   -7.31918e-07   7.77587e-07 DIIS
   @DF-RHF iter   9:  -224.84369628806752   -1.10794e-07   1.87961e-07 DIIS
   @DF-RHF iter  10:  -224.84369629360333   -5.53581e-09   7.33125e-08 DIIS
   @DF-RHF iter  11:  -224.84369629442946   -8.26134e-10   3.26918e-08 DIIS
   @DF-RHF iter  12:  -224.84369629458195   -1.52482e-10   9.70884e-09 DIIS
   @DF-RHF iter  13:  -224.84369629459482   -1.28750e-11   3.58840e-09 DIIS
   @DF-RHF iter  14:  -224.84369629459636   -1.53477e-12   1.58275e-09 DIIS
   @DF-RHF iter  15:  -224.84369629459690   -5.40012e-13   5.27556e-10 DIIS
   @DF-RHF iter  16:  -224.84369629459695   -5.68434e-14   2.34517e-10 DIIS
   @DF-RHF iter  17:  -224.84369629459675    1.98952e-13   4.71139e-11 DIIS
  Energy and wave function converged.


  ==> Post-Iterations <==

    Orbital Energies [Eh]
    ---------------------

    Doubly Occupied:

       1A    -15.637071     2A    -15.551216     3A    -11.300916
       4A    -11.263160     5A    -11.245653     6A     -1.352867
       7A     -1.169098     8A     -1.012098     9A     -0.824390
      10A     -0.803731    11A     -0.760666    12A     -0.610096
      13A     -0.603958    14A     -0.601922    15A     -0.570942
      16A     -0.435483    17A     -0.400464    18A     -0.320685

    Virtual:

      19A      0.022161    20A      0.025390    21A      0.039433
      22A      0.041816    23A      0.043300    24A      0.050030
      25A      0.061838    26A      0.067271    27A      0.076171
      28A      0.086009    29A      0.089128    30A      0.097210
      31A      0.101396    32A      0.120829    33A      0.124128
      34A      0.124772    35A      0.125582    36A      0.126579
      37A      0.126736    38A      0.133482    39A      0.133800
      40A      0.133825    41A      0.137770    42A      0.140953
      43A      0.156286    44A      0.156500    45A      0.159028
      46A      0.172000    47A      0.178189    48A      0.187162
      49A      0.191848    50A      0.207290    51A      0.209113
      52A      0.211559    53A      0.212402    54A      0.219910
      55A      0.220683    56A      0.222305    57A      0.232360
      58A      0.232805    59A      0.241430    60A      0.261607
      61A      0.267800    62A      0.271763    63A      0.277916
      64A      0.299321    65A      0.301768    66A      0.306144
      67A      0.314438    68A      0.318949    69A      0.338197
      70A      0.359914    71A      0.361496    72A      0.370745
      73A      0.375088    74A      0.379818    75A      0.388310
      76A      0.393125    77A      0.397124    78A      0.417078
      79A      0.427168    80A      0.429012    81A      0.434698
      82A      0.440205    83A      0.448653    84A      0.451727
      85A      0.452083    86A      0.466324    87A      0.467812
      88A      0.480796    89A      0.481232    90A      0.486289
      91A      0.488152    92A      0.517071    93A      0.520236
      94A      0.535740    95A      0.537812    96A      0.542880
      97A      0.551707    98A      0.555370    99A      0.556634
     100A      0.568291   101A      0.576473   102A      0.578979
     103A      0.587253   104A      0.594272   105A      0.598946
     106A      0.606185   107A      0.611816   108A      0.616083
     109A      0.618028   110A      0.636545   111A      0.639427
     112A      0.652506   113A      0.669282   114A      0.671338
     115A      0.677276   116A      0.678187   117A      0.683536
     118A      0.683875   119A      0.711005   120A      0.714698
     121A      0.725758   122A      0.735811   123A      0.741239
     124A      0.755787   125A      0.762699   126A      0.767415
     127A      0.790929   128A      0.793606   129A      0.797921
     130A      0.809749   131A      0.810145   132A      0.812208
     133A      0.822908   134A      0.836370   135A      0.859255
     136A      0.860501   137A      0.871438   138A      0.885765
     139A      0.886307   140A      0.889823   141A      0.909502
     142A      0.919376   143A      0.926642   144A      0.954355
     145A      0.968458   146A      0.976966   147A      0.991573
     148A      0.998371   149A      1.010706   150A      1.015192
     151A      1.017410   152A      1.030677   153A      1.058740
     154A      1.077363   155A      1.078312   156A      1.084552
     157A      1.103422   158A      1.115686   159A      1.126995
     160A      1.132135   161A      1.140514   162A      1.149566
     163A      1.167192   164A      1.170629   165A      1.173814
     166A      1.197305   167A      1.210309   168A      1.217447
     169A      1.260723   170A      1.277860   171A      1.290415
     172A      1.296774   173A      1.302541   174A      1.312307
     175A      1.317845   176A      1.347377   177A      1.383789
     178A      1.385037   179A      1.398148   180A      1.451144
     181A      1.494676   182A      1.503298   183A      1.515583
     184A      1.518410   185A      1.541073   186A      1.574128
     187A      1.574290   188A      1.596413   189A      1.652159
     190A      1.660672   191A      1.671506   192A      1.705287
     193A      1.724477   194A      1.782644   195A      1.799076
     196A      1.807066   197A      1.864970   198A      1.881486
     199A      1.924392   200A      1.964988   201A      2.022007
     202A      2.025430   203A      2.039469   204A      2.072983
     205A      2.100841   206A      2.107055   207A      2.119252
     208A      2.126759   209A      2.131138   210A      2.135965
     211A      2.149243   212A      2.168673   213A      2.178815
     214A      2.184841   215A      2.229442   216A      2.252588
     217A      2.267083   218A      2.275963   219A      2.300924
     220A      2.308437   221A      2.327037   222A      2.332073
     223A      2.376708   224A      2.405268   225A      2.413120
     226A      2.417758   227A      2.455508   228A      2.470659
     229A      2.493699   230A      2.496921   231A      2.514026
     232A      2.525716   233A      2.545321   234A      2.545393
     235A      2.576703   236A      2.585746   237A      2.599720
     238A      2.633765   239A      2.696005   240A      2.734093
     241A      2.747027   242A      2.767100   243A      2.790312
     244A      2.794149   245A      2.803444   246A      2.828779
     247A      2.837658   248A      2.867213   249A      2.895785
     250A      2.933105   251A      2.949258   252A      2.952741
     253A      2.980862   254A      3.043471   255A      3.051201
     256A      3.069912   257A      3.076132   258A      3.131863
     259A      3.159591   260A      3.182952   261A      3.199168
     262A      3.208799   263A      3.213376   264A      3.334816
     265A      3.340781   266A      3.354568   267A      3.354716
     268A      3.362804   269A      3.458610   270A      3.494534
     271A      3.518552   272A      3.569474   273A      3.609008
     274A      3.707189   275A      3.726684   276A      3.768301
     277A      3.778336   278A      3.798095   279A      3.857889
     280A      3.870737   281A      4.003901   282A      4.109025
     283A      4.212736   284A      4.636736   285A      4.638810
     286A      4.695985   287A      4.771789   288A      4.880048
     289A      5.021408   290A      5.254770   291A      5.373205
     292A      5.494901   293A      5.610335   294A      5.716208
     295A      5.883941   296A      6.089609   297A      6.198196
     298A     18.255434   299A     18.590191   300A     19.300401
     301A     25.312079   302A     25.453171

    Final Occupation by Irrep:
              A
    DOCC [    18 ]

  @DF-RHF Final Energy:  -224.84369629459675

   => Energetics <=

    Nuclear Repulsion Energy =            164.0866959941843959
    One-Electron Energy =                -628.9319564696847920
    Two-Electron Energy =                 240.0015641809036140
    Total Energy =                       -224.8436962945967537

Computation Completed


Properties will be evaluated at   0.000000,   0.000000,   0.000000 [a0]

Properties computed using the SCF density matrix

  Nuclear Dipole Moment: [e a0]
     X:  -102.4221      Y:  -129.0981      Z:   128.4908

  Electronic Dipole Moment: [e a0]
     X:   103.2259      Y:   129.2613      Z:  -129.8232

  Dipole Moment: [e a0]
     X:     0.8038      Y:     0.1633      Z:    -1.3324     Total:     1.5646

  Dipole Moment: [D]
     X:     2.0431      Y:     0.4150      Z:    -3.3867     Total:     3.9769


*** tstop() called on ds1 at Tue Sep 14 18:29:57 2021
Module time:
	user time   =      17.15 seconds =       0.29 minutes
	system time =       0.33 seconds =       0.01 minutes
	total time  =          4 seconds =       0.07 minutes
Total time:
	user time   =      41.19 seconds =       0.69 minutes
	system time =       0.90 seconds =       0.02 minutes
	total time  =          9 seconds =       0.15 minutes

  //>>>>>>>>>>>>>>>>>>>>>>>>>>>>>>>>>>>//
  //            Monomer B HF           //
  //<<<<<<<<<<<<<<<<<<<<<<<<<<<<<<<<<<<//


*** tstart() called on ds1
*** at Tue Sep 14 18:29:57 2021

   => Loading Basis Set <=

    Name: AUG-CC-PVDZ
    Role: ORBITAL
    Keyword: BASIS
    atoms 1-2, 10-11 entry N          line   218 file /theoryfs2/ds/csargent/miniconda3/envs/cle/share/psi4/basis/aug-cc-pvdz.gbs
    atoms 3-6, 12-15 entry H          line    40 file /theoryfs2/ds/csargent/miniconda3/envs/cle/share/psi4/basis/aug-cc-pvdz.gbs
    atoms 7-9, 16-18 entry C          line   182 file /theoryfs2/ds/csargent/miniconda3/envs/cle/share/psi4/basis/aug-cc-pvdz.gbs


         ---------------------------------------------------------
                                   SCF
               by Justin Turney, Rob Parrish, Andy Simmonett
                          and Daniel G. A. Smith
                              RHF Reference
                        6 Threads,   6675 MiB Core
         ---------------------------------------------------------

  ==> Geometry <==

    Molecular point group: c1
    Full point group: C1

    Geometry (in Bohr), charge = 0, multiplicity = 1:

       Center              X                  Y                   Z               Mass
    ------------   -----------------  -----------------  -----------------  -----------------
      Gh(N)          -4.293096210000    -3.068374310000     5.305162310000    14.003074004430
      Gh(N)          -2.158473710000    -2.926272960000     1.720374480000    14.003074004430
      Gh(H)          -0.025455870000    -6.359035750000     2.220464520000     1.007825032230
      Gh(H)          -2.685669680000    -6.532602410000     6.614459540000     1.007825032230
      Gh(H)          -4.743884230000    -0.006090060000     2.756159680000     1.007825032230
      Gh(H)          -1.410455400000    -2.247231470000     0.000000000000     1.007825032230
      Gh(C)          -1.437379910000    -5.075048480000     2.940658910000    12.000000000000
      Gh(C)          -2.769007820000    -5.146099160000     5.135228800000    12.000000000000
      Gh(C)          -3.859550360000    -1.777281980000     3.210934110000    12.000000000000
         N          -23.985287180000     7.081722650000   -10.878981410000    14.003074004430
         N          -21.850664680000     7.223824010000   -14.463769240000    14.003074004430
         H          -19.717646840000     3.791061220000   -13.963679200000     1.007825032230
         H          -22.377860650000     3.617494560000    -9.569684180000     1.007825032230
         H          -24.436075190000    10.144006910000   -13.427984050000     1.007825032230
         H          -21.102646370000     7.902865500000   -16.184143720000     1.007825032230
         C          -21.129570880000     5.075048480000   -13.243484810000    12.000000000000
         C          -22.461198790000     5.003997800000   -11.048914920000    12.000000000000
         C          -23.551741330000     8.372814990000   -12.973209610000    12.000000000000

  Running in c1 symmetry.

  Rotational constants: A =      0.02088  B =      0.00123  C =      0.00118 [cm^-1]
  Rotational constants: A =    625.82565  B =     36.98419  C =     35.25309 [MHz]
  Nuclear repulsion =  164.086695878665751

  Charge       = 0
  Multiplicity = 1
  Electrons    = 36
  Nalpha       = 18
  Nbeta        = 18

  ==> Algorithm <==

  SCF Algorithm Type is DF.
  DIIS enabled.
  MOM disabled.
  Fractional occupation disabled.
  Guess Type is SAD.
  Energy threshold   = 1.00e-10
  Density threshold  = 1.00e-10
  Integral threshold = 1.00e-12

  ==> Primary Basis <==

  Basis Set: AUG-CC-PVDZ
    Blend: AUG-CC-PVDZ
    Number of shells: 130
    Number of basis functions: 302
    Number of Cartesian functions: 322
    Spherical Harmonics?: true
    Max angular momentum: 2

   => Loading Basis Set <=

    Name: (AUG-CC-PVDZ AUX)
    Role: JKFIT
    Keyword: DF_BASIS_SCF
    atoms 1-2, 10-11 entry N          line   212 file /theoryfs2/ds/csargent/miniconda3/envs/cle/share/psi4/basis/aug-cc-pvdz-jkfit.gbs
    atoms 3-6, 12-15 entry H          line    70 file /theoryfs2/ds/csargent/miniconda3/envs/cle/share/psi4/basis/aug-cc-pvdz-jkfit.gbs
    atoms 7-9, 16-18 entry C          line   154 file /theoryfs2/ds/csargent/miniconda3/envs/cle/share/psi4/basis/aug-cc-pvdz-jkfit.gbs

  ==> Integral Setup <==

  ==> DiskDFJK: Density-Fitted J/K Matrices <==

    J tasked:                  Yes
    K tasked:                  Yes
    wK tasked:                  No
    OpenMP threads:              6
    Integrals threads:           6
    Memory [MiB]:             5006
    Algorithm:                Core
    Integral Cache:           LOAD
    Schwarz Cutoff:          1E-12
    Fitting Condition:       1E-10

   => Auxiliary Basis Set <=

  Basis Set: (AUG-CC-PVDZ AUX)
    Blend: AUG-CC-PVDZ-JKFIT
    Number of shells: 376
    Number of basis functions: 1116
    Number of Cartesian functions: 1290
    Spherical Harmonics?: true
    Max angular momentum: 3

  Minimum eigenvalue in the overlap matrix is 2.1803965591E-05.
  Reciprocal condition number of the overlap matrix is 1.8366554136E-06.
    Using symmetric orthogonalization.

  ==> Pre-Iterations <==

  SCF Guess: Superposition of Atomic Densities via on-the-fly atomic UHF (no occupation information).

   -------------------------
    Irrep   Nso     Nmo
   -------------------------
     A        302     302
   -------------------------
    Total     302     302
   -------------------------

  ==> Iterations <==

                           Total Energy        Delta E     RMS |[F,P]|

   @DF-RHF iter SAD:  -224.55857168528996   -2.24559e+02   0.00000e+00
   @DF-RHF iter   1:  -224.69806466302819   -1.39493e-01   1.63067e-03 DIIS
   @DF-RHF iter   2:  -224.80532028359414   -1.07256e-01   9.27384e-04 DIIS
   @DF-RHF iter   3:  -224.84168818940685   -3.63679e-02   1.74019e-04 DIIS
   @DF-RHF iter   4:  -224.84337344159471   -1.68525e-03   7.98972e-05 DIIS
   @DF-RHF iter   5:  -224.84367502230913   -3.01581e-04   1.26452e-05 DIIS
   @DF-RHF iter   6:  -224.84369235934383   -1.73370e-05   5.61871e-06 DIIS
   @DF-RHF iter   7:  -224.84369544741381   -3.08807e-06   2.19503e-06 DIIS
   @DF-RHF iter   8:  -224.84369617933220   -7.31918e-07   7.77587e-07 DIIS
   @DF-RHF iter   9:  -224.84369629012650   -1.10794e-07   1.87961e-07 DIIS
   @DF-RHF iter  10:  -224.84369629566197   -5.53547e-09   7.33126e-08 DIIS
   @DF-RHF iter  11:  -224.84369629648856   -8.26589e-10   3.26918e-08 DIIS
   @DF-RHF iter  12:  -224.84369629664059   -1.52028e-10   9.70884e-09 DIIS
   @DF-RHF iter  13:  -224.84369629665358   -1.29887e-11   3.58840e-09 DIIS
   @DF-RHF iter  14:  -224.84369629665511   -1.53477e-12   1.58275e-09 DIIS
   @DF-RHF iter  15:  -224.84369629665554   -4.26326e-13   5.27556e-10 DIIS
   @DF-RHF iter  16:  -224.84369629665608   -5.40012e-13   2.34517e-10 DIIS
   @DF-RHF iter  17:  -224.84369629665562    4.54747e-13   4.71139e-11 DIIS
  Energy and wave function converged.


  ==> Post-Iterations <==

    Orbital Energies [Eh]
    ---------------------

    Doubly Occupied:

       1A    -15.637071     2A    -15.551216     3A    -11.300916
       4A    -11.263160     5A    -11.245653     6A     -1.352867
       7A     -1.169098     8A     -1.012098     9A     -0.824390
      10A     -0.803731    11A     -0.760666    12A     -0.610096
      13A     -0.603958    14A     -0.601922    15A     -0.570942
      16A     -0.435483    17A     -0.400464    18A     -0.320685

    Virtual:

      19A      0.022905    20A      0.025387    21A      0.040025
      22A      0.042000    23A      0.043838    24A      0.050058
      25A      0.061803    26A      0.068015    27A      0.076946
      28A      0.086689    29A      0.089105    30A      0.097934
      31A      0.101396    32A      0.120830    33A      0.124937
      34A      0.125440    35A      0.125556    36A      0.127158
      37A      0.127614    38A      0.133446    39A      0.133708
      40A      0.134602    41A      0.138404    42A      0.141023
      43A      0.156593    44A      0.157042    45A      0.158725
      46A      0.172136    47A      0.178189    48A      0.187224
      49A      0.192468    50A      0.208112    51A      0.209886
      52A      0.211559    53A      0.213072    54A      0.220268
      55A      0.220912    56A      0.223036    57A      0.232354
      58A      0.233465    59A      0.241408    60A      0.261606
      61A      0.267817    62A      0.272537    63A      0.277928
      64A      0.299944    65A      0.301745    66A      0.306858
      67A      0.314447    68A      0.319653    69A      0.338209
      70A      0.360700    71A      0.361490    72A      0.370747
      73A      0.375807    74A      0.379814    75A      0.388308
      76A      0.393868    77A      0.397102    78A      0.417141
      79A      0.427750    80A      0.429018    81A      0.435468
      82A      0.440862    83A      0.449370    84A      0.452040
      85A      0.452491    86A      0.466350    87A      0.468479
      88A      0.481230    89A      0.481493    90A      0.486284
      91A      0.488152    92A      0.517890    93A      0.520949
      94A      0.536441    95A      0.538559    96A      0.543516
      97A      0.551715    98A      0.556218    99A      0.556475
     100A      0.568290   101A      0.576474   102A      0.579715
     103A      0.587994   104A      0.594256   105A      0.598956
     106A      0.606845   107A      0.612541   108A      0.616080
     109A      0.618725   110A      0.636538   111A      0.640139
     112A      0.652509   113A      0.669283   114A      0.671337
     115A      0.678044   116A      0.678196   117A      0.683870
     118A      0.684196   119A      0.711689   120A      0.714699
     121A      0.725762   122A      0.736497   123A      0.741238
     124A      0.756527   125A      0.762699   126A      0.767405
     127A      0.790930   128A      0.793603   129A      0.798643
     130A      0.809745   131A      0.810893   132A      0.813010
     133A      0.823632   134A      0.837053   135A      0.860016
     136A      0.860459   137A      0.871425   138A      0.885767
     139A      0.887020   140A      0.889823   141A      0.910190
     142A      0.920094   143A      0.927353   144A      0.954352
     145A      0.969163   146A      0.976965   147A      0.992307
     148A      0.998360   149A      1.010708   150A      1.015903
     151A      1.017405   152A      1.030678   153A      1.059419
     154A      1.077352   155A      1.079037   156A      1.084552
     157A      1.104125   158A      1.116401   159A      1.127001
     160A      1.132833   161A      1.140504   162A      1.149571
     163A      1.167171   164A      1.171335   165A      1.174533
     166A      1.198026   167A      1.211013   168A      1.217446
     169A      1.260729   170A      1.278556   171A      1.291123
     172A      1.297488   173A      1.302561   174A      1.313025
     175A      1.318555   176A      1.348070   177A      1.384496
     178A      1.385030   179A      1.398152   180A      1.451153
     181A      1.495371   182A      1.503289   183A      1.516312
     184A      1.518411   185A      1.541781   186A      1.574127
     187A      1.574288   188A      1.596382   189A      1.652159
     190A      1.661386   191A      1.671507   192A      1.705326
     193A      1.724478   194A      1.782643   195A      1.799080
     196A      1.807067   197A      1.864962   198A      1.881479
     199A      1.924392   200A      1.964990   201A      2.022009
     202A      2.025435   203A      2.040137   204A      2.072981
     205A      2.101580   206A      2.107055   207A      2.120033
     208A      2.126764   209A      2.131866   210A      2.135969
     211A      2.149967   212A      2.168673   213A      2.178815
     214A      2.185530   215A      2.230188   216A      2.253267
     217A      2.267082   218A      2.275964   219A      2.300925
     220A      2.309145   221A      2.327741   222A      2.332073
     223A      2.377470   224A      2.405970   225A      2.413817
     226A      2.417759   227A      2.456219   228A      2.471388
     229A      2.494428   230A      2.496924   231A      2.514030
     232A      2.526452   233A      2.545346   234A      2.546068
     235A      2.577387   236A      2.585744   237A      2.600424
     238A      2.633768   239A      2.696701   240A      2.734096
     241A      2.747025   242A      2.767090   243A      2.791045
     244A      2.794151   245A      2.803448   246A      2.829436
     247A      2.837646   248A      2.867213   249A      2.896509
     250A      2.933823   251A      2.949962   252A      2.952741
     253A      2.980862   254A      3.044205   255A      3.051202
     256A      3.069926   257A      3.076842   258A      3.132588
     259A      3.160325   260A      3.183650   261A      3.199168
     262A      3.208795   263A      3.214104   264A      3.334816
     265A      3.341493   266A      3.354579   267A      3.355438
     268A      3.363521   269A      3.459329   270A      3.495246
     271A      3.518554   272A      3.570178   273A      3.609706
     274A      3.707896   275A      3.727392   276A      3.768295
     277A      3.779043   278A      3.798815   279A      3.858597
     280A      3.871448   281A      4.004605   282A      4.109036
     283A      4.213452   284A      4.637433   285A      4.639521
     286A      4.696691   287A      4.772504   288A      4.880758
     289A      5.022120   290A      5.255469   291A      5.373913
     292A      5.495603   293A      5.611045   294A      5.716934
     295A      5.884662   296A      6.090318   297A      6.198908
     298A     18.256136   299A     18.590931   300A     19.301092
     301A     25.312772   302A     25.453893

    Final Occupation by Irrep:
              A
    DOCC [    18 ]

  @DF-RHF Final Energy:  -224.84369629665562

   => Energetics <=

    Nuclear Repulsion Energy =            164.0866958786657506
    One-Electron Energy =                -628.9319562703897191
    Two-Electron Energy =                 240.0015640950683462
    Total Energy =                       -224.8436962966556223

Computation Completed


Properties will be evaluated at   0.000000,   0.000000,   0.000000 [a0]

Properties computed using the SCF density matrix

  Nuclear Dipole Moment: [e a0]
     X:  -811.3410      Y:   236.3054      Z:  -454.1384

  Electronic Dipole Moment: [e a0]
     X:   812.1448      Y:  -236.1422      Z:   452.8060

  Dipole Moment: [e a0]
     X:     0.8038      Y:     0.1633      Z:    -1.3324     Total:     1.5646

  Dipole Moment: [D]
     X:     2.0431      Y:     0.4150      Z:    -3.3867     Total:     3.9769


*** tstop() called on ds1 at Tue Sep 14 18:30:01 2021
Module time:
	user time   =      17.18 seconds =       0.29 minutes
	system time =       0.41 seconds =       0.01 minutes
	total time  =          4 seconds =       0.07 minutes
Total time:
	user time   =      58.53 seconds =       0.98 minutes
	system time =       1.32 seconds =       0.02 minutes
	total time  =         13 seconds =       0.22 minutes
  Constructing Basis Sets for SAPT...

   => Loading Basis Set <=

    Name: (AUG-CC-PVDZ AUX)
    Role: RIFIT
    Keyword: DF_BASIS_SAPT
    atoms 1-2, 10-11 entry N          line   158 file /theoryfs2/ds/csargent/miniconda3/envs/cle/share/psi4/basis/aug-cc-pvdz-ri.gbs
    atoms 3-6, 12-15 entry H          line    30 file /theoryfs2/ds/csargent/miniconda3/envs/cle/share/psi4/basis/aug-cc-pvdz-ri.gbs
    atoms 7-9, 16-18 entry C          line   112 file /theoryfs2/ds/csargent/miniconda3/envs/cle/share/psi4/basis/aug-cc-pvdz-ri.gbs


  //>>>>>>>>>>>>>>>>>>>>>>>>>>>>>>>>>>>//
  //               SAPT0               //
  //<<<<<<<<<<<<<<<<<<<<<<<<<<<<<<<<<<<//


*** tstart() called on ds1
*** at Tue Sep 14 18:30:01 2021

        SAPT0
    Ed Hohenstein
     6 June 2009

      Orbital Information
  --------------------------
    NSO        =       302
    NMO        =       302
    NRI        =       904
    NOCC A     =        18
    NOCC B     =        18
    FOCC A     =         5
    FOCC B     =         5
    NVIR A     =       284
    NVIR B     =       284

    Elst10,r            =     0.000090896759 [Eh]
    Exch10              =     0.000000000007 [Eh]
    Exch10 (S^2)        =     0.000000000007 [Eh]

    Iter     Energy [mEh]          dE [mEh]         Residual      Time [s]
       1      -0.00011537       0.000115375       0.116514324             0
       2      -0.00010789      -0.000007484       0.031568167             0
       3      -0.00012054       0.000012651       0.010593963             0
       4      -0.00012164       0.000001097       0.004272048             1
       5      -0.00012133      -0.000000306       0.001929614             1
       6      -0.00012119      -0.000000145       0.000612112             1
       7      -0.00012122       0.000000035       0.000266309             1
       8      -0.00012125       0.000000024       0.000072575             1
       9      -0.00012124      -0.000000005       0.000028022             1
      10      -0.00012124      -0.000000002       0.000006387             1
      11      -0.00012124       0.000000001       0.000002398             1
      12      -0.00012124       0.000000000       0.000000792             2

    CHF Iterations converged


    Iter     Energy [mEh]          dE [mEh]         Residual      Time [s]
       1      -0.00020798       0.000207977       0.156926562             0
       2      -0.00019423      -0.000013751       0.043712254             0
       3      -0.00021648       0.000022256       0.018056672             0
       4      -0.00022031       0.000003830       0.006161505             0
       5      -0.00021956      -0.000000754       0.002870661             0
       6      -0.00021920      -0.000000356       0.000959567             0
       7      -0.00021929       0.000000085       0.000389816             0
       8      -0.00021932       0.000000033       0.000140422             1
       9      -0.00021932      -0.000000003       0.000042930             1
      10      -0.00021931      -0.000000006       0.000007320             1
      11      -0.00021931       0.000000001       0.000002035             1
      12      -0.00021931      -0.000000000       0.000000815             1

    CHF Iterations converged

    Ind20,r (A<-B)      =    -0.000000121240 [Eh]
    Ind20,r (B<-A)      =    -0.000000219313 [Eh]
    Ind20,r             =    -0.000000340553 [Eh]
    Exch-Ind20,r (A<-B) =     0.000000000016 [Eh]
    Exch-Ind20,r (B<-A) =     0.000000000005 [Eh]
    Exch-Ind20,r        =     0.000000000022 [Eh]
    Disp20              =    -0.000003056361 [Eh]
    Disp20 (SS)         =    -0.000001528180 [Eh]
    Disp20 (OS)         =    -0.000001528180 [Eh]
    Exch-Disp20         =     0.000000000002 [Eh]
    Exch-Disp20 (SS)    =     0.000000000002 [Eh]
    Exch-Disp20 (OS)    =     0.000000000000 [Eh]

    SAPT Results
  --------------------------------------------------------------------------------------------------------
    Electrostatics                  0.09089676 [mEh]       0.05703858 [kcal/mol]       0.23864941 [kJ/mol]
      Elst10,r                      0.09089676 [mEh]       0.05703858 [kcal/mol]       0.23864941 [kJ/mol]

    Exchange                        0.00000001 [mEh]       0.00000000 [kcal/mol]       0.00000002 [kJ/mol]
      Exch10                        0.00000001 [mEh]       0.00000000 [kcal/mol]       0.00000002 [kJ/mol]
      Exch10(S^2)                   0.00000001 [mEh]       0.00000000 [kcal/mol]       0.00000002 [kJ/mol]

    Induction                      -0.00032945 [mEh]      -0.00020673 [kcal/mol]      -0.00086498 [kJ/mol]
      Ind20,r                      -0.00034055 [mEh]      -0.00021370 [kcal/mol]      -0.00089412 [kJ/mol]
      Exch-Ind20,r                  0.00000002 [mEh]       0.00000001 [kcal/mol]       0.00000006 [kJ/mol]
      delta HF,r (2)                0.00001108 [mEh]       0.00000695 [kcal/mol]       0.00002909 [kJ/mol]

    Dispersion                     -0.00305636 [mEh]      -0.00191789 [kcal/mol]      -0.00802447 [kJ/mol]
      Disp20                       -0.00305636 [mEh]      -0.00191790 [kcal/mol]      -0.00802447 [kJ/mol]
      Exch-Disp20                   0.00000000 [mEh]       0.00000000 [kcal/mol]       0.00000001 [kJ/mol]
      Disp20 (SS)                  -0.00152818 [mEh]      -0.00095895 [kcal/mol]      -0.00401224 [kJ/mol]
      Disp20 (OS)                  -0.00152818 [mEh]      -0.00095895 [kcal/mol]      -0.00401224 [kJ/mol]
      Exch-Disp20 (SS)              0.00000000 [mEh]       0.00000000 [kcal/mol]       0.00000000 [kJ/mol]
      Exch-Disp20 (OS)              0.00000000 [mEh]       0.00000000 [kcal/mol]       0.00000000 [kJ/mol]

  Total HF                          0.09056731 [mEh]       0.05683185 [kcal/mol]       0.23778445 [kJ/mol]
  Total SAPT0                       0.08751096 [mEh]       0.05491395 [kcal/mol]       0.22975998 [kJ/mol]

  Special recipe for scaled SAPT0 (see Manual):
    Electrostatics sSAPT0           0.09089676 [mEh]       0.05703858 [kcal/mol]       0.23864941 [kJ/mol]
    Exchange sSAPT0                 0.00000001 [mEh]       0.00000000 [kcal/mol]       0.00000002 [kJ/mol]
    Induction sSAPT0               -0.00032945 [mEh]      -0.00020673 [kcal/mol]      -0.00086498 [kJ/mol]
    Dispersion sSAPT0              -0.00305636 [mEh]      -0.00191789 [kcal/mol]      -0.00802447 [kJ/mol]
  Total sSAPT0                      0.08751096 [mEh]       0.05491395 [kcal/mol]       0.22975998 [kJ/mol]
  --------------------------------------------------------------------------------------------------------

*** tstop() called on ds1 at Tue Sep 14 18:30:11 2021
Module time:
	user time   =      45.82 seconds =       0.76 minutes
	system time =       4.00 seconds =       0.07 minutes
	total time  =         10 seconds =       0.17 minutes
Total time:
	user time   =     105.38 seconds =       1.76 minutes
	system time =       5.36 seconds =       0.09 minutes
	total time  =         23 seconds =       0.38 minutes


Warning! sapt0 does not have an associated derived wavefunction.The returned wavefunction is the dimer SCF wavefunction.


    Psi4 stopped on: Tuesday, 14 September 2021 06:30PM
    Psi4 wall time for execution: 0:00:22.45

*** Psi4 exiting successfully. Buy a developer a beer!
