
    -----------------------------------------------------------------------
          Psi4: An Open-Source Ab Initio Electronic Structure Package
                               Psi4 1.4rc3 

                         Git: Rev {HEAD} 080dba6 


    D. G. A. Smith, L. A. Burns, A. C. Simmonett, R. M. Parrish,
    M. C. Schieber, R. Galvelis, P. Kraus, H. Kruse, R. Di Remigio,
    A. Alenaizan, A. M. James, S. Lehtola, J. P. Misiewicz, M. Scheurer,
    R. A. Shaw, J. B. Schriber, Y. Xie, Z. L. Glick, D. A. Sirianni,
    J. S. O'Brien, J. M. Waldrop, A. Kumar, E. G. Hohenstein,
    B. P. Pritchard, B. R. Brooks, H. F. Schaefer III, A. Yu. Sokolov,
    K. Patkowski, A. E. DePrince III, U. Bozkaya, R. A. King,
    F. A. Evangelista, J. M. Turney, T. D. Crawford, C. D. Sherrill,
    J. Chem. Phys. 152(18) 184108 (2020). https://doi.org/10.1063/5.0006002

                            Additional Code Authors
    E. T. Seidl, C. L. Janssen, E. F. Valeev, M. L. Leininger,
    J. F. Gonthier, R. M. Richard, H. R. McAlexander, M. Saitow, X. Wang,
    P. Verma, and M. H. Lechner

             Previous Authors, Complete List of Code Contributors,
                       and Citations for Specific Modules
    https://github.com/psi4/psi4/blob/master/codemeta.json
    https://github.com/psi4/psi4/graphs/contributors
    http://psicode.org/psi4manual/master/introduction.html#citing-psifour

    -----------------------------------------------------------------------


    Psi4 started on: Tuesday, 14 September 2021 05:41PM

    Process ID: 3854
    Host:       ds1
    PSIDATADIR: /theoryfs2/ds/csargent/miniconda3/envs/cle/share/psi4
    Memory:     500.0 MiB
    Threads:    6
    
  ==> Input File <==

--------------------------------------------------------------------------
# PSI4 file produced by CrystaLattE

# Generated from:               imidazole.xyz
# Psithon input for N-mer:      2mer-0+537
# Number of atoms per monomer:  [9, 9]
# Number of replicas:           2
# COM priority:                 1.275907426762e-05
# Minimum COM separations:      22.646 
# Separation priority:          2.055450440818e-05
# Minimum monomer separations:  19.318 
# Cutoff priority:              5.630444473584e-07
# Nuclear repulsion energy:     358.46737819499947

memory 7 GB

molecule Dimer_0_537 {
  N           -4.29309621      -3.06837431       5.30516231 
  N           -2.15847371      -2.92627296       1.72037448 
  H           -0.02545587      -6.35903575       2.22046452 
  H           -2.68566968      -6.53260241       6.61445954 
  H           -4.74388423      -0.00609006       2.75615968 
  H           -1.41045540      -2.24723147       0.00000000 
  C           -1.43737991      -5.07504848       2.94065891 
  C           -2.76900782      -5.14609916       5.13522880 
  C           -3.85955036      -1.77728198       3.21093411 
--
  N          -38.31356861      17.23181962     -10.87898141 
  N          -36.17894611      17.37392098     -14.46376924 
  H          -34.04592826      13.94115818     -13.96367920 
  H          -36.70614208      13.76759152      -9.56968418 
  H          -38.76435662      20.29410387     -13.42798405 
  H          -35.43092780      18.05296246     -16.18414372 
  C          -35.45785231      15.22514545     -13.24348481 
  C          -36.78948022      15.15409477     -11.04891492 
  C          -37.88002275      18.52291195     -12.97320961 
units = au
no_com
no_reorient
}

set {
  e_convergence 10
  d_convergence 10
  scf_type df
  mp2_type df
  cc_type df
  freeze_core true
}

energy('sapt0/aug-cc-pvdz')

--------------------------------------------------------------------------

  Memory set to   6.519 GiB by Python driver.

Scratch directory: /scratch/csargent/psi4.31446.79897/

Scratch directory: /scratch/csargent/psi4.31446.79897/

  //>>>>>>>>>>>>>>>>>>>>>>>>>>>>>>>>>>>//
  //              Dimer HF             //
  //<<<<<<<<<<<<<<<<<<<<<<<<<<<<<<<<<<<//


*** tstart() called on ds1
*** at Tue Sep 14 17:41:06 2021

   => Loading Basis Set <=

    Name: AUG-CC-PVDZ
    Role: ORBITAL
    Keyword: BASIS
    atoms 1-2, 10-11 entry N          line   218 file /theoryfs2/ds/csargent/miniconda3/envs/cle/share/psi4/basis/aug-cc-pvdz.gbs 
    atoms 3-6, 12-15 entry H          line    40 file /theoryfs2/ds/csargent/miniconda3/envs/cle/share/psi4/basis/aug-cc-pvdz.gbs 
    atoms 7-9, 16-18 entry C          line   182 file /theoryfs2/ds/csargent/miniconda3/envs/cle/share/psi4/basis/aug-cc-pvdz.gbs 


         ---------------------------------------------------------
                                   SCF
               by Justin Turney, Rob Parrish, Andy Simmonett
                          and Daniel G. A. Smith
                              RHF Reference
                        6 Threads,   6675 MiB Core
         ---------------------------------------------------------

  ==> Geometry <==

    Molecular point group: c1
    Full point group: C1

    Geometry (in Bohr), charge = 0, multiplicity = 1:

       Center              X                  Y                   Z               Mass       
    ------------   -----------------  -----------------  -----------------  -----------------
         N           -4.293096210000    -3.068374310000     5.305162310000    14.003074004430
         N           -2.158473710000    -2.926272960000     1.720374480000    14.003074004430
         H           -0.025455870000    -6.359035750000     2.220464520000     1.007825032230
         H           -2.685669680000    -6.532602410000     6.614459540000     1.007825032230
         H           -4.743884230000    -0.006090060000     2.756159680000     1.007825032230
         H           -1.410455400000    -2.247231470000     0.000000000000     1.007825032230
         C           -1.437379910000    -5.075048480000     2.940658910000    12.000000000000
         C           -2.769007820000    -5.146099160000     5.135228800000    12.000000000000
         C           -3.859550360000    -1.777281980000     3.210934110000    12.000000000000
         N          -38.313568610000    17.231819620000   -10.878981410000    14.003074004430
         N          -36.178946110000    17.373920980000   -14.463769240000    14.003074004430
         H          -34.045928260000    13.941158180000   -13.963679200000     1.007825032230
         H          -36.706142080000    13.767591520000    -9.569684180000     1.007825032230
         H          -38.764356620000    20.294103870000   -13.427984050000     1.007825032230
         H          -35.430927800000    18.052962460000   -16.184143720000     1.007825032230
         C          -35.457852310000    15.225145450000   -13.243484810000    12.000000000000
         C          -36.789480220000    15.154094770000   -11.048914920000    12.000000000000
         C          -37.880022750000    18.522911950000   -12.973209610000    12.000000000000

  Running in c1 symmetry.

  Rotational constants: A =      0.02133  B =      0.00049  C =      0.00048 [cm^-1]
  Rotational constants: A =    639.59671  B =     14.68924  C =     14.39904 [MHz]
  Nuclear repulsion =  358.467378333192414

  Charge       = 0
  Multiplicity = 1
  Electrons    = 72
  Nalpha       = 36
  Nbeta        = 36

  ==> Algorithm <==

  SCF Algorithm Type is DF.
  DIIS enabled.
  MOM disabled.
  Fractional occupation disabled.
  Guess Type is SAD.
  Energy threshold   = 1.00e-10
  Density threshold  = 1.00e-10
  Integral threshold = 1.00e-12

  ==> Primary Basis <==

  Basis Set: AUG-CC-PVDZ
    Blend: AUG-CC-PVDZ
    Number of shells: 130
    Number of basis functions: 302
    Number of Cartesian functions: 322
    Spherical Harmonics?: true
    Max angular momentum: 2

   => Loading Basis Set <=

    Name: (AUG-CC-PVDZ AUX)
    Role: JKFIT
    Keyword: DF_BASIS_SCF
    atoms 1-2, 10-11 entry N          line   212 file /theoryfs2/ds/csargent/miniconda3/envs/cle/share/psi4/basis/aug-cc-pvdz-jkfit.gbs 
    atoms 3-6, 12-15 entry H          line    70 file /theoryfs2/ds/csargent/miniconda3/envs/cle/share/psi4/basis/aug-cc-pvdz-jkfit.gbs 
    atoms 7-9, 16-18 entry C          line   154 file /theoryfs2/ds/csargent/miniconda3/envs/cle/share/psi4/basis/aug-cc-pvdz-jkfit.gbs 

  ==> Integral Setup <==

  ==> DiskDFJK: Density-Fitted J/K Matrices <==

    J tasked:                  Yes
    K tasked:                  Yes
    wK tasked:                  No
    OpenMP threads:              6
    Integrals threads:           6
    Memory [MiB]:             5006
    Algorithm:                Core
    Integral Cache:           SAVE
    Schwarz Cutoff:          1E-12
    Fitting Condition:       1E-10

   => Auxiliary Basis Set <=

  Basis Set: (AUG-CC-PVDZ AUX)
    Blend: AUG-CC-PVDZ-JKFIT
    Number of shells: 376
    Number of basis functions: 1116
    Number of Cartesian functions: 1290
    Spherical Harmonics?: true
    Max angular momentum: 3

  Minimum eigenvalue in the overlap matrix is 2.1837063029E-05.
  Reciprocal condition number of the overlap matrix is 1.8394514162E-06.
    Using symmetric orthogonalization.

  ==> Pre-Iterations <==

  SCF Guess: Superposition of Atomic Densities via on-the-fly atomic UHF (no occupation information).

   -------------------------
    Irrep   Nso     Nmo    
   -------------------------
     A        302     302 
   -------------------------
    Total     302     302
   -------------------------

  ==> Iterations <==

                           Total Energy        Delta E     RMS |[F,P]|

   @DF-RHF iter SAD:  -449.11714339739910   -4.49117e+02   0.00000e+00 
   @DF-RHF iter   1:  -449.39604176137766   -2.78898e-01   2.30633e-03 DIIS
   @DF-RHF iter   2:  -449.61055980960566   -2.14518e-01   1.31192e-03 DIIS
   @DF-RHF iter   3:  -449.68334335540726   -7.27835e-02   2.46232e-04 DIIS
   @DF-RHF iter   4:  -449.68671612632238   -3.37277e-03   1.13078e-04 DIIS
   @DF-RHF iter   5:  -449.68732021460875   -6.04088e-04   1.78847e-05 DIIS
   @DF-RHF iter   6:  -449.68735489996629   -3.46854e-05   7.94793e-06 DIIS
   @DF-RHF iter   7:  -449.68736107780836   -6.17784e-06   3.10485e-06 DIIS
   @DF-RHF iter   8:  -449.68736254160899   -1.46380e-06   1.09967e-06 DIIS
   @DF-RHF iter   9:  -449.68736276318350   -2.21575e-07   2.65712e-07 DIIS
   @DF-RHF iter  10:  -449.68736277425705   -1.10736e-08   1.03513e-07 DIIS
   @DF-RHF iter  11:  -449.68736277590648   -1.64943e-09   4.62424e-08 DIIS
   @DF-RHF iter  12:  -449.68736277621008   -3.03601e-10   1.37200e-08 DIIS
   @DF-RHF iter  13:  -449.68736277623606   -2.59774e-11   5.07418e-09 DIIS
   @DF-RHF iter  14:  -449.68736277623969   -3.63798e-12   2.23801e-09 DIIS
   @DF-RHF iter  15:  -449.68736277624038   -6.82121e-13   7.46127e-10 DIIS
   @DF-RHF iter  16:  -449.68736277623975    6.25278e-13   3.31702e-10 DIIS
   @DF-RHF iter  17:  -449.68736277624043   -6.82121e-13   6.67437e-11 DIIS
  Energy and wave function converged.


  ==> Post-Iterations <==

    Orbital Energies [Eh]
    ---------------------

    Doubly Occupied:                                                      

       1A    -15.637131     2A    -15.637074     3A    -15.551254  
       4A    -15.551196     5A    -11.300963     6A    -11.300906  
       7A    -11.263207     8A    -11.263150     9A    -11.245695  
      10A    -11.245635    11A     -1.352918    12A     -1.352860  
      13A     -1.169146    14A     -1.169088    15A     -1.012146  
      16A     -1.012088    17A     -0.824443    18A     -0.824385  
      19A     -0.803778    20A     -0.803718    21A     -0.760717  
      22A     -0.760661    23A     -0.610145    24A     -0.610085  
      25A     -0.604010    26A     -0.603953    27A     -0.601975  
      28A     -0.601922    29A     -0.570981    30A     -0.570918  
      31A     -0.435515    32A     -0.435457    33A     -0.400508  
      34A     -0.400449    35A     -0.320732    36A     -0.320674  

    Virtual:                                                              

      37A      0.025245    38A      0.025291    39A      0.041499  
      40A      0.041537    41A      0.049976    42A      0.050073  
      43A      0.061819    44A      0.061882    45A      0.089037  
      46A      0.089092    47A      0.101363    48A      0.101413  
      49A      0.120774    50A      0.120826    51A      0.125530  
      52A      0.125582    53A      0.133373    54A      0.133418  
      55A      0.133759    56A      0.133832    57A      0.140906  
      58A      0.140975    59A      0.156438    60A      0.156475  
      61A      0.158613    62A      0.158673    63A      0.171995  
      64A      0.172111    65A      0.178122    66A      0.178179  
      67A      0.187150    68A      0.187196    69A      0.211524  
      70A      0.211580    71A      0.220219    72A      0.220278  
      73A      0.232324    74A      0.232381    75A      0.241350  
      76A      0.241402    77A      0.261546    78A      0.261592  
      79A      0.267809    80A      0.267868    81A      0.277892  
      82A      0.277956    83A      0.301690    84A      0.301745  
      85A      0.314414    86A      0.314473    87A      0.338161  
      88A      0.338225    89A      0.361429    90A      0.361481  
      91A      0.370679    92A      0.370737    93A      0.379727  
      94A      0.379789    95A      0.388231    96A      0.388275  
      97A      0.397040    98A      0.397090    99A      0.416997  
     100A      0.417075   101A      0.428971   102A      0.429036  
     103A      0.452007   104A      0.452065   105A      0.466292  
     106A      0.466357   107A      0.481161   108A      0.481212  
     109A      0.486238   110A      0.486298   111A      0.488110  
     112A      0.488173   113A      0.551654   114A      0.551715  
     115A      0.556326   116A      0.556381   117A      0.568229  
     118A      0.568283   119A      0.576422   120A      0.576480  
     121A      0.594188   122A      0.594243   123A      0.598878  
     124A      0.598932   125A      0.616043   126A      0.616105  
     127A      0.636490   128A      0.636545   129A      0.652463  
     130A      0.652527   131A      0.669238   132A      0.669296  
     133A      0.671291   134A      0.671352   135A      0.678123  
     136A      0.678184   137A      0.683830   138A      0.683895  
     139A      0.714645   140A      0.714702   141A      0.725696  
     142A      0.725746   143A      0.741193   144A      0.741256  
     145A      0.762657   146A      0.762715   147A      0.767356  
     148A      0.767414   149A      0.790877   150A      0.790936  
     151A      0.793559   152A      0.793615   153A      0.809691  
     154A      0.809750   155A      0.860349   156A      0.860410  
     157A      0.871378   158A      0.871437   159A      0.885728  
     160A      0.885784   161A      0.889779   162A      0.889838  
     163A      0.954302   164A      0.954360   165A      0.976907  
     166A      0.976966   167A      0.998316   168A      0.998373  
     169A      1.010674   170A      1.010731   171A      1.017362  
     172A      1.017421   173A      1.030625   174A      1.030680  
     175A      1.077315   176A      1.077373   177A      1.084502  
     178A      1.084559   179A      1.126940   180A      1.127000  
     181A      1.140456   182A      1.140519   183A      1.149515  
     184A      1.149571   185A      1.167126   186A      1.167187  
     187A      1.217404   188A      1.217463   189A      1.260667  
     190A      1.260718   191A      1.302499   192A      1.302562  
     193A      1.384970   194A      1.385029   195A      1.398107  
     196A      1.398164   197A      1.451096   198A      1.451154  
     199A      1.503245   200A      1.503305   201A      1.518358  
     202A      1.518416   203A      1.574080   204A      1.574137  
     205A      1.574247   206A      1.574308   207A      1.596331  
     208A      1.596388   209A      1.652113   210A      1.652171  
     211A      1.671463   212A      1.671522   213A      1.705241  
     214A      1.705300   215A      1.724429   216A      1.724487  
     217A      1.782594   218A      1.782649   219A      1.799023  
     220A      1.799081   221A      1.807024   222A      1.807088  
     223A      1.864906   224A      1.864964   225A      1.881427  
     226A      1.881484   227A      1.924345   228A      1.924403  
     229A      1.964938   230A      1.964995   231A      2.021948  
     232A      2.022004   233A      2.025374   234A      2.025432  
     235A      2.072931   236A      2.072989   237A      2.107007  
     238A      2.107063   239A      2.126714   240A      2.126772  
     241A      2.135919   242A      2.135978   243A      2.168620  
     244A      2.168679   245A      2.178762   246A      2.178820  
     247A      2.267030   248A      2.267090   249A      2.275916  
     250A      2.275976   251A      2.300872   252A      2.300931  
     253A      2.332023   254A      2.332080   255A      2.417709  
     256A      2.417767   257A      2.496858   258A      2.496913  
     259A      2.513980   260A      2.514040   261A      2.545280  
     262A      2.545336   263A      2.585695   264A      2.585750  
     265A      2.633719   266A      2.633777   267A      2.734049  
     268A      2.734109   269A      2.746978   270A      2.747035  
     271A      2.767042   272A      2.767099   273A      2.794100  
     274A      2.794158   275A      2.803399   276A      2.803459  
     277A      2.837585   278A      2.837643   279A      2.867163  
     280A      2.867220   281A      2.952686   282A      2.952744  
     283A      2.980818   284A      2.980877   285A      3.051154  
     286A      3.051212   287A      3.069863   288A      3.069921  
     289A      3.199113   290A      3.199171   291A      3.208746  
     292A      3.208805   293A      3.334765   294A      3.334823  
     295A      3.354526   296A      3.354584   297A      3.518507  
     298A      3.518565   299A      3.768249   300A      3.768308  
     301A      4.108970   302A      4.109028  

    Final Occupation by Irrep:
              A 
    DOCC [    36 ]

  @DF-RHF Final Energy:  -449.68736277624043

   => Energetics <=

    Nuclear Repulsion Energy =            358.4673783331924142
    One-Electron Energy =               -1318.4505174591929517
    Two-Electron Energy =                 510.2957763497601036
    Total Energy =                       -449.6873627762404340

Computation Completed


Properties will be evaluated at   0.000000,   0.000000,   0.000000 [a0]

Properties computed using the SCF density matrix

  Nuclear Dipole Moment: [e a0]
     X: -1429.5812      Y:   472.6108      Z:  -325.6476

  Electronic Dipole Moment: [e a0]
     X:  1431.1879      Y:  -472.2846      Z:   322.9846

  Dipole Moment: [e a0]
     X:     1.6067      Y:     0.3262      Z:    -2.6630     Total:     3.1272

  Dipole Moment: [D]
     X:     4.0838      Y:     0.8291      Z:    -6.7687     Total:     7.9486


*** tstop() called on ds1 at Tue Sep 14 17:41:11 2021
Module time:
	user time   =      22.26 seconds =       0.37 minutes
	system time =       0.55 seconds =       0.01 minutes
	total time  =          5 seconds =       0.08 minutes
Total time:
	user time   =      22.26 seconds =       0.37 minutes
	system time =       0.55 seconds =       0.01 minutes
	total time  =          5 seconds =       0.08 minutes

  //>>>>>>>>>>>>>>>>>>>>>>>>>>>>>>>>>>>//
  //            Monomer A HF           //
  //<<<<<<<<<<<<<<<<<<<<<<<<<<<<<<<<<<<//


*** tstart() called on ds1
*** at Tue Sep 14 17:41:11 2021

   => Loading Basis Set <=

    Name: AUG-CC-PVDZ
    Role: ORBITAL
    Keyword: BASIS
    atoms 1-2, 10-11 entry N          line   218 file /theoryfs2/ds/csargent/miniconda3/envs/cle/share/psi4/basis/aug-cc-pvdz.gbs 
    atoms 3-6, 12-15 entry H          line    40 file /theoryfs2/ds/csargent/miniconda3/envs/cle/share/psi4/basis/aug-cc-pvdz.gbs 
    atoms 7-9, 16-18 entry C          line   182 file /theoryfs2/ds/csargent/miniconda3/envs/cle/share/psi4/basis/aug-cc-pvdz.gbs 


         ---------------------------------------------------------
                                   SCF
               by Justin Turney, Rob Parrish, Andy Simmonett
                          and Daniel G. A. Smith
                              RHF Reference
                        6 Threads,   6675 MiB Core
         ---------------------------------------------------------

  ==> Geometry <==

    Molecular point group: c1
    Full point group: C1

    Geometry (in Bohr), charge = 0, multiplicity = 1:

       Center              X                  Y                   Z               Mass       
    ------------   -----------------  -----------------  -----------------  -----------------
         N           -4.293096210000    -3.068374310000     5.305162310000    14.003074004430
         N           -2.158473710000    -2.926272960000     1.720374480000    14.003074004430
         H           -0.025455870000    -6.359035750000     2.220464520000     1.007825032230
         H           -2.685669680000    -6.532602410000     6.614459540000     1.007825032230
         H           -4.743884230000    -0.006090060000     2.756159680000     1.007825032230
         H           -1.410455400000    -2.247231470000     0.000000000000     1.007825032230
         C           -1.437379910000    -5.075048480000     2.940658910000    12.000000000000
         C           -2.769007820000    -5.146099160000     5.135228800000    12.000000000000
         C           -3.859550360000    -1.777281980000     3.210934110000    12.000000000000
      Gh(N)         -38.313568610000    17.231819620000   -10.878981410000    14.003074004430
      Gh(N)         -36.178946110000    17.373920980000   -14.463769240000    14.003074004430
      Gh(H)         -34.045928260000    13.941158180000   -13.963679200000     1.007825032230
      Gh(H)         -36.706142080000    13.767591520000    -9.569684180000     1.007825032230
      Gh(H)         -38.764356620000    20.294103870000   -13.427984050000     1.007825032230
      Gh(H)         -35.430927800000    18.052962460000   -16.184143720000     1.007825032230
      Gh(C)         -35.457852310000    15.225145450000   -13.243484810000    12.000000000000
      Gh(C)         -36.789480220000    15.154094770000   -11.048914920000    12.000000000000
      Gh(C)         -37.880022750000    18.522911950000   -12.973209610000    12.000000000000

  Running in c1 symmetry.

  Rotational constants: A =      0.02133  B =      0.00049  C =      0.00048 [cm^-1]
  Rotational constants: A =    639.59671  B =     14.68924  C =     14.39904 [MHz]
  Nuclear repulsion =  164.086695994184396

  Charge       = 0
  Multiplicity = 1
  Electrons    = 36
  Nalpha       = 18
  Nbeta        = 18

  ==> Algorithm <==

  SCF Algorithm Type is DF.
  DIIS enabled.
  MOM disabled.
  Fractional occupation disabled.
  Guess Type is SAD.
  Energy threshold   = 1.00e-10
  Density threshold  = 1.00e-10
  Integral threshold = 1.00e-12

  ==> Primary Basis <==

  Basis Set: AUG-CC-PVDZ
    Blend: AUG-CC-PVDZ
    Number of shells: 130
    Number of basis functions: 302
    Number of Cartesian functions: 322
    Spherical Harmonics?: true
    Max angular momentum: 2

   => Loading Basis Set <=

    Name: (AUG-CC-PVDZ AUX)
    Role: JKFIT
    Keyword: DF_BASIS_SCF
    atoms 1-2, 10-11 entry N          line   212 file /theoryfs2/ds/csargent/miniconda3/envs/cle/share/psi4/basis/aug-cc-pvdz-jkfit.gbs 
    atoms 3-6, 12-15 entry H          line    70 file /theoryfs2/ds/csargent/miniconda3/envs/cle/share/psi4/basis/aug-cc-pvdz-jkfit.gbs 
    atoms 7-9, 16-18 entry C          line   154 file /theoryfs2/ds/csargent/miniconda3/envs/cle/share/psi4/basis/aug-cc-pvdz-jkfit.gbs 

  ==> Integral Setup <==

  ==> DiskDFJK: Density-Fitted J/K Matrices <==

    J tasked:                  Yes
    K tasked:                  Yes
    wK tasked:                  No
    OpenMP threads:              6
    Integrals threads:           6
    Memory [MiB]:             5006
    Algorithm:                Core
    Integral Cache:           LOAD
    Schwarz Cutoff:          1E-12
    Fitting Condition:       1E-10

   => Auxiliary Basis Set <=

  Basis Set: (AUG-CC-PVDZ AUX)
    Blend: AUG-CC-PVDZ-JKFIT
    Number of shells: 376
    Number of basis functions: 1116
    Number of Cartesian functions: 1290
    Spherical Harmonics?: true
    Max angular momentum: 3

  Minimum eigenvalue in the overlap matrix is 2.1837063029E-05.
  Reciprocal condition number of the overlap matrix is 1.8394514162E-06.
    Using symmetric orthogonalization.

  ==> Pre-Iterations <==

  SCF Guess: Superposition of Atomic Densities via on-the-fly atomic UHF (no occupation information).

   -------------------------
    Irrep   Nso     Nmo    
   -------------------------
     A        302     302 
   -------------------------
    Total     302     302
   -------------------------

  ==> Iterations <==

                           Total Energy        Delta E     RMS |[F,P]|

   @DF-RHF iter SAD:  -224.55857169574941   -2.24559e+02   0.00000e+00 
   @DF-RHF iter   1:  -224.69806464792205   -1.39493e-01   1.63067e-03 DIIS
   @DF-RHF iter   2:  -224.80532026663468   -1.07256e-01   9.27384e-04 DIIS
   @DF-RHF iter   3:  -224.84168817065230   -3.63679e-02   1.74019e-04 DIIS
   @DF-RHF iter   4:  -224.84337342273048   -1.68525e-03   7.98972e-05 DIIS
   @DF-RHF iter   5:  -224.84367500344459   -3.01581e-04   1.26452e-05 DIIS
   @DF-RHF iter   6:  -224.84369234047801   -1.73370e-05   5.61871e-06 DIIS
   @DF-RHF iter   7:  -224.84369542854682   -3.08807e-06   2.19503e-06 DIIS
   @DF-RHF iter   8:  -224.84369616046575   -7.31919e-07   7.77587e-07 DIIS
   @DF-RHF iter   9:  -224.84369627125972   -1.10794e-07   1.87961e-07 DIIS
   @DF-RHF iter  10:  -224.84369627679533   -5.53561e-09   7.33125e-08 DIIS
   @DF-RHF iter  11:  -224.84369627762175   -8.26418e-10   3.26918e-08 DIIS
   @DF-RHF iter  12:  -224.84369627777386   -1.52113e-10   9.70884e-09 DIIS
   @DF-RHF iter  13:  -224.84369627778690   -1.30456e-11   3.58840e-09 DIIS
   @DF-RHF iter  14:  -224.84369627778850   -1.59162e-12   1.58275e-09 DIIS
   @DF-RHF iter  15:  -224.84369627778901   -5.11591e-13   5.27556e-10 DIIS
   @DF-RHF iter  16:  -224.84369627778881    1.98952e-13   2.34517e-10 DIIS
   @DF-RHF iter  17:  -224.84369627778909   -2.84217e-13   4.71138e-11 DIIS
  Energy and wave function converged.


  ==> Post-Iterations <==

    Orbital Energies [Eh]
    ---------------------

    Doubly Occupied:                                                      

       1A    -15.637071     2A    -15.551216     3A    -11.300916  
       4A    -11.263160     5A    -11.245653     6A     -1.352867  
       7A     -1.169098     8A     -1.012098     9A     -0.824390  
      10A     -0.803731    11A     -0.760666    12A     -0.610096  
      13A     -0.603958    14A     -0.601922    15A     -0.570942  
      16A     -0.435483    17A     -0.400464    18A     -0.320685  

    Virtual:                                                              

      19A      0.022675    20A      0.025388    21A      0.040232  
      22A      0.041580    23A      0.043681    24A      0.049997  
      25A      0.061864    26A      0.067754    27A      0.076649  
      28A      0.086350    29A      0.089096    30A      0.097650  
      31A      0.101397    32A      0.120831    33A      0.124699  
      34A      0.125205    35A      0.125577    36A      0.126974  
      37A      0.127338    38A      0.133472    39A      0.133773  
      40A      0.134229    41A      0.138226    42A      0.140942  
      43A      0.156500    44A      0.156843    45A      0.158699  
      46A      0.171989    47A      0.178189    48A      0.187224  
      49A      0.192239    50A      0.207838    51A      0.209505  
      52A      0.211559    53A      0.212686    54A      0.220268  
      55A      0.220456    56A      0.222705    57A      0.232359  
      58A      0.233211    59A      0.241408    60A      0.261605  
      61A      0.267803    62A      0.272232    63A      0.277911  
      64A      0.299550    65A      0.301746    66A      0.306570  
      67A      0.314442    68A      0.319368    69A      0.338197  
      70A      0.360309    71A      0.361488    72A      0.370745  
      73A      0.375611    74A      0.379800    75A      0.388291  
      76A      0.393566    77A      0.397097    78A      0.417031  
      79A      0.427541    80A      0.429000    81A      0.435289  
      82A      0.440543    83A      0.449136    84A      0.452059  
      85A      0.452236    86A      0.466350    87A      0.468248  
      88A      0.481187    89A      0.481229    90A      0.486283  
      91A      0.488151    92A      0.517487    93A      0.520690  
      94A      0.536115    95A      0.538342    96A      0.543274  
      97A      0.551710    98A      0.555963    99A      0.556382  
     100A      0.568280   101A      0.576474   102A      0.579479  
     103A      0.587696   104A      0.594249   105A      0.598939  
     106A      0.606607   107A      0.612203   108A      0.616080  
     109A      0.618469   110A      0.636538   111A      0.639905  
     112A      0.652504   113A      0.669282   114A      0.671337  
     115A      0.677767   116A      0.678185   117A      0.683874  
     118A      0.683934   119A      0.711365   120A      0.714698  
     121A      0.725758   122A      0.736258   123A      0.741238  
     124A      0.756259   125A      0.762698   126A      0.767400  
     127A      0.790929   128A      0.793606   129A      0.798369  
     130A      0.809747   131A      0.810619   132A      0.812612  
     133A      0.823410   134A      0.836779   135A      0.859769  
     136A      0.860398   137A      0.871425   138A      0.885765  
     139A      0.886715   140A      0.889823   141A      0.909909  
     142A      0.919808   143A      0.927070   144A      0.954351  
     145A      0.968891   146A      0.976964   147A      0.991997  
     148A      0.998360   149A      1.010706   150A      1.015610  
     151A      1.017404   152A      1.030676   153A      1.059172  
     154A      1.077353   155A      1.078767   156A      1.084552  
     157A      1.103826   158A      1.116164   159A      1.126983  
     160A      1.132613   161A      1.140497   162A      1.149565  
     163A      1.167170   164A      1.171059   165A      1.174235  
     166A      1.197730   167A      1.210744   168A      1.217445  
     169A      1.260721   170A      1.278223   171A      1.290823  
     172A      1.297177   173A      1.302539   174A      1.312734  
     175A      1.318277   176A      1.347765   177A      1.384258  
     178A      1.385028   179A      1.398145   180A      1.451143  
     181A      1.495095   182A      1.503288   183A      1.516014  
     184A      1.518410   185A      1.541517   186A      1.574127  
     187A      1.574285   188A      1.596381   189A      1.652159  
     190A      1.661117   191A      1.671505   192A      1.705286  
     193A      1.724477   194A      1.782643   195A      1.799067  
     196A      1.807063   197A      1.864950   198A      1.881477  
     199A      1.924391   200A      1.964987   201A      2.022005  
     202A      2.025429   203A      2.039889   204A      2.072981  
     205A      2.101272   206A      2.107054   207A      2.119655  
     208A      2.126759   209A      2.131595   210A      2.135965  
     211A      2.149711   212A      2.168670   213A      2.178815  
     214A      2.185333   215A      2.229944   216A      2.253000  
     217A      2.267082   218A      2.275963   219A      2.300924  
     220A      2.308908   221A      2.327431   222A      2.332072  
     223A      2.377102   224A      2.405811   225A      2.413616  
     226A      2.417758   227A      2.456004   228A      2.471101  
     229A      2.494188   230A      2.496919   231A      2.514025  
     232A      2.526150   233A      2.545345   234A      2.545775  
     235A      2.577166   236A      2.585743   237A      2.600179  
     238A      2.633765   239A      2.696508   240A      2.734093  
     241A      2.747025   242A      2.767089   243A      2.790706  
     244A      2.794149   245A      2.803444   246A      2.829199  
     247A      2.837641   248A      2.867213   249A      2.896154  
     250A      2.933612   251A      2.949748   252A      2.952738  
     253A      2.980862   254A      3.043886   255A      3.051201  
     256A      3.069910   257A      3.076568   258A      3.132281  
     259A      3.160023   260A      3.183359   261A      3.199163  
     262A      3.208795   263A      3.213790   264A      3.334816  
     265A      3.341237   266A      3.354572   267A      3.355145  
     268A      3.363283   269A      3.459056   270A      3.494890  
     271A      3.518552   272A      3.569961   273A      3.609364  
     274A      3.707637   275A      3.727128   276A      3.768294  
     277A      3.778786   278A      3.798575   279A      3.858351  
     280A      3.871147   281A      4.004308   282A      4.109022  
     283A      4.213167   284A      4.637168   285A      4.639238  
     286A      4.696405   287A      4.772223   288A      4.880489  
     289A      5.021844   290A      5.255137   291A      5.373625  
     292A      5.495285   293A      5.610799   294A      5.716689  
     295A      5.884359   296A      6.090095   297A      6.198602  
     298A     18.255910   299A     18.590573   300A     19.300869  
     301A     25.312406   302A     25.453665  

    Final Occupation by Irrep:
              A 
    DOCC [    18 ]

  @DF-RHF Final Energy:  -224.84369627778909

   => Energetics <=

    Nuclear Repulsion Energy =            164.0866959941843959
    One-Electron Energy =                -628.9319562967421007
    Two-Electron Energy =                 240.0015640247685837
    Total Energy =                       -224.8436962777890926

Computation Completed


Properties will be evaluated at   0.000000,   0.000000,   0.000000 [a0]

Properties computed using the SCF density matrix

  Nuclear Dipole Moment: [e a0]
     X:  -102.4221      Y:  -129.0981      Z:   128.4908

  Electronic Dipole Moment: [e a0]
     X:   103.2259      Y:   129.2613      Z:  -129.8232

  Dipole Moment: [e a0]
     X:     0.8038      Y:     0.1633      Z:    -1.3324     Total:     1.5646

  Dipole Moment: [D]
     X:     2.0431      Y:     0.4150      Z:    -3.3867     Total:     3.9769


*** tstop() called on ds1 at Tue Sep 14 17:41:15 2021
Module time:
	user time   =      15.92 seconds =       0.27 minutes
	system time =       0.36 seconds =       0.01 minutes
	total time  =          4 seconds =       0.07 minutes
Total time:
	user time   =      38.31 seconds =       0.64 minutes
	system time =       0.91 seconds =       0.02 minutes
	total time  =          9 seconds =       0.15 minutes

  //>>>>>>>>>>>>>>>>>>>>>>>>>>>>>>>>>>>//
  //            Monomer B HF           //
  //<<<<<<<<<<<<<<<<<<<<<<<<<<<<<<<<<<<//


*** tstart() called on ds1
*** at Tue Sep 14 17:41:15 2021

   => Loading Basis Set <=

    Name: AUG-CC-PVDZ
    Role: ORBITAL
    Keyword: BASIS
    atoms 1-2, 10-11 entry N          line   218 file /theoryfs2/ds/csargent/miniconda3/envs/cle/share/psi4/basis/aug-cc-pvdz.gbs 
    atoms 3-6, 12-15 entry H          line    40 file /theoryfs2/ds/csargent/miniconda3/envs/cle/share/psi4/basis/aug-cc-pvdz.gbs 
    atoms 7-9, 16-18 entry C          line   182 file /theoryfs2/ds/csargent/miniconda3/envs/cle/share/psi4/basis/aug-cc-pvdz.gbs 


         ---------------------------------------------------------
                                   SCF
               by Justin Turney, Rob Parrish, Andy Simmonett
                          and Daniel G. A. Smith
                              RHF Reference
                        6 Threads,   6675 MiB Core
         ---------------------------------------------------------

  ==> Geometry <==

    Molecular point group: c1
    Full point group: C1

    Geometry (in Bohr), charge = 0, multiplicity = 1:

       Center              X                  Y                   Z               Mass       
    ------------   -----------------  -----------------  -----------------  -----------------
      Gh(N)          -4.293096210000    -3.068374310000     5.305162310000    14.003074004430
      Gh(N)          -2.158473710000    -2.926272960000     1.720374480000    14.003074004430
      Gh(H)          -0.025455870000    -6.359035750000     2.220464520000     1.007825032230
      Gh(H)          -2.685669680000    -6.532602410000     6.614459540000     1.007825032230
      Gh(H)          -4.743884230000    -0.006090060000     2.756159680000     1.007825032230
      Gh(H)          -1.410455400000    -2.247231470000     0.000000000000     1.007825032230
      Gh(C)          -1.437379910000    -5.075048480000     2.940658910000    12.000000000000
      Gh(C)          -2.769007820000    -5.146099160000     5.135228800000    12.000000000000
      Gh(C)          -3.859550360000    -1.777281980000     3.210934110000    12.000000000000
         N          -38.313568610000    17.231819620000   -10.878981410000    14.003074004430
         N          -36.178946110000    17.373920980000   -14.463769240000    14.003074004430
         H          -34.045928260000    13.941158180000   -13.963679200000     1.007825032230
         H          -36.706142080000    13.767591520000    -9.569684180000     1.007825032230
         H          -38.764356620000    20.294103870000   -13.427984050000     1.007825032230
         H          -35.430927800000    18.052962460000   -16.184143720000     1.007825032230
         C          -35.457852310000    15.225145450000   -13.243484810000    12.000000000000
         C          -36.789480220000    15.154094770000   -11.048914920000    12.000000000000
         C          -37.880022750000    18.522911950000   -12.973209610000    12.000000000000

  Running in c1 symmetry.

  Rotational constants: A =      0.02133  B =      0.00049  C =      0.00048 [cm^-1]
  Rotational constants: A =    639.59671  B =     14.68924  C =     14.39904 [MHz]
  Nuclear repulsion =  164.086695997750866

  Charge       = 0
  Multiplicity = 1
  Electrons    = 36
  Nalpha       = 18
  Nbeta        = 18

  ==> Algorithm <==

  SCF Algorithm Type is DF.
  DIIS enabled.
  MOM disabled.
  Fractional occupation disabled.
  Guess Type is SAD.
  Energy threshold   = 1.00e-10
  Density threshold  = 1.00e-10
  Integral threshold = 1.00e-12

  ==> Primary Basis <==

  Basis Set: AUG-CC-PVDZ
    Blend: AUG-CC-PVDZ
    Number of shells: 130
    Number of basis functions: 302
    Number of Cartesian functions: 322
    Spherical Harmonics?: true
    Max angular momentum: 2

   => Loading Basis Set <=

    Name: (AUG-CC-PVDZ AUX)
    Role: JKFIT
    Keyword: DF_BASIS_SCF
    atoms 1-2, 10-11 entry N          line   212 file /theoryfs2/ds/csargent/miniconda3/envs/cle/share/psi4/basis/aug-cc-pvdz-jkfit.gbs 
    atoms 3-6, 12-15 entry H          line    70 file /theoryfs2/ds/csargent/miniconda3/envs/cle/share/psi4/basis/aug-cc-pvdz-jkfit.gbs 
    atoms 7-9, 16-18 entry C          line   154 file /theoryfs2/ds/csargent/miniconda3/envs/cle/share/psi4/basis/aug-cc-pvdz-jkfit.gbs 

  ==> Integral Setup <==

  ==> DiskDFJK: Density-Fitted J/K Matrices <==

    J tasked:                  Yes
    K tasked:                  Yes
    wK tasked:                  No
    OpenMP threads:              6
    Integrals threads:           6
    Memory [MiB]:             5006
    Algorithm:                Core
    Integral Cache:           LOAD
    Schwarz Cutoff:          1E-12
    Fitting Condition:       1E-10

   => Auxiliary Basis Set <=

  Basis Set: (AUG-CC-PVDZ AUX)
    Blend: AUG-CC-PVDZ-JKFIT
    Number of shells: 376
    Number of basis functions: 1116
    Number of Cartesian functions: 1290
    Spherical Harmonics?: true
    Max angular momentum: 3

  Minimum eigenvalue in the overlap matrix is 2.1837063029E-05.
  Reciprocal condition number of the overlap matrix is 1.8394514162E-06.
    Using symmetric orthogonalization.

  ==> Pre-Iterations <==

  SCF Guess: Superposition of Atomic Densities via on-the-fly atomic UHF (no occupation information).

   -------------------------
    Irrep   Nso     Nmo    
   -------------------------
     A        302     302 
   -------------------------
    Total     302     302
   -------------------------

  ==> Iterations <==

                           Total Energy        Delta E     RMS |[F,P]|

   @DF-RHF iter SAD:  -224.55857169631693   -2.24559e+02   0.00000e+00 
   @DF-RHF iter   1:  -224.69806464780652   -1.39493e-01   1.63067e-03 DIIS
   @DF-RHF iter   2:  -224.80532026627404   -1.07256e-01   9.27384e-04 DIIS
   @DF-RHF iter   3:  -224.84168817019344   -3.63679e-02   1.74019e-04 DIIS
   @DF-RHF iter   4:  -224.84337342227172   -1.68525e-03   7.98972e-05 DIIS
   @DF-RHF iter   5:  -224.84367500298688   -3.01581e-04   1.26452e-05 DIIS
   @DF-RHF iter   6:  -224.84369234001997   -1.73370e-05   5.61871e-06 DIIS
   @DF-RHF iter   7:  -224.84369542808989   -3.08807e-06   2.19503e-06 DIIS
   @DF-RHF iter   8:  -224.84369616000808   -7.31918e-07   7.77587e-07 DIIS
   @DF-RHF iter   9:  -224.84369627080196   -1.10794e-07   1.87961e-07 DIIS
   @DF-RHF iter  10:  -224.84369627633805   -5.53609e-09   7.33125e-08 DIIS
   @DF-RHF iter  11:  -224.84369627716376   -8.25708e-10   3.26918e-08 DIIS
   @DF-RHF iter  12:  -224.84369627731616   -1.52397e-10   9.70884e-09 DIIS
   @DF-RHF iter  13:  -224.84369627732940   -1.32445e-11   3.58840e-09 DIIS
   @DF-RHF iter  14:  -224.84369627733068   -1.27898e-12   1.58275e-09 DIIS
   @DF-RHF iter  15:  -224.84369627733111   -4.26326e-13   5.27556e-10 DIIS
   @DF-RHF iter  16:  -224.84369627733136   -2.55795e-13   2.34517e-10 DIIS
   @DF-RHF iter  17:  -224.84369627733125    1.13687e-13   4.71138e-11 DIIS
  Energy and wave function converged.


  ==> Post-Iterations <==

    Orbital Energies [Eh]
    ---------------------

    Doubly Occupied:                                                      

       1A    -15.637071     2A    -15.551216     3A    -11.300916  
       4A    -11.263160     5A    -11.245653     6A     -1.352867  
       7A     -1.169098     8A     -1.012098     9A     -0.824390  
      10A     -0.803731    11A     -0.760666    12A     -0.610096  
      13A     -0.603958    14A     -0.601922    15A     -0.570942  
      16A     -0.435483    17A     -0.400464    18A     -0.320685  

    Virtual:                                                              

      19A      0.022616    20A      0.025388    21A      0.040156  
      22A      0.041580    23A      0.043633    24A      0.049997  
      25A      0.061864    26A      0.067707    27A      0.076591  
      28A      0.086261    29A      0.089096    30A      0.097613  
      31A      0.101397    32A      0.120831    33A      0.124657  
      34A      0.125111    35A      0.125577    36A      0.126892  
      37A      0.127312    38A      0.133472    39A      0.133773  
      40A      0.134173    41A      0.138163    42A      0.140942  
      43A      0.156500    44A      0.156786    45A      0.158699  
      46A      0.171988    47A      0.178189    48A      0.187224  
      49A      0.192190    50A      0.207792    51A      0.209444  
      52A      0.211559    53A      0.212620    54A      0.220268  
      55A      0.220382    56A      0.222658    57A      0.232359  
      58A      0.233144    59A      0.241408    60A      0.261605  
      61A      0.267803    62A      0.272188    63A      0.277911  
      64A      0.299478    65A      0.301746    66A      0.306517  
      67A      0.314442    68A      0.319306    69A      0.338197  
      70A      0.360249    71A      0.361488    72A      0.370745  
      73A      0.375562    74A      0.379800    75A      0.388291  
      76A      0.393507    77A      0.397097    78A      0.417031  
      79A      0.427474    80A      0.429000    81A      0.435248  
      82A      0.440468    83A      0.449079    84A      0.452059  
      85A      0.452184    86A      0.466350    87A      0.468194  
      88A      0.481120    89A      0.481229    90A      0.486283  
      91A      0.488151    92A      0.517428    93A      0.520638  
      94A      0.536053    95A      0.538292    96A      0.543204  
      97A      0.551710    98A      0.555904    99A      0.556382  
     100A      0.568280   101A      0.576474   102A      0.579434  
     103A      0.587638   104A      0.594249   105A      0.598939  
     106A      0.606543   107A      0.612147   108A      0.616080  
     109A      0.618411   110A      0.636538   111A      0.639846  
     112A      0.652504   113A      0.669282   114A      0.671337  
     115A      0.677720   116A      0.678185   117A      0.683865  
     118A      0.683874   119A      0.711296   120A      0.714698  
     121A      0.725758   122A      0.736195   123A      0.741238  
     124A      0.756206   125A      0.762698   126A      0.767400  
     127A      0.790929   128A      0.793606   129A      0.798313  
     130A      0.809747   131A      0.810568   132A      0.812558  
     133A      0.823355   134A      0.836713   135A      0.859708  
     136A      0.860398   137A      0.871425   138A      0.885765  
     139A      0.886658   140A      0.889823   141A      0.909844  
     142A      0.919748   143A      0.927013   144A      0.954351  
     145A      0.968835   146A      0.976964   147A      0.991942  
     148A      0.998360   149A      1.010706   150A      1.015550  
     151A      1.017404   152A      1.030676   153A      1.059113  
     154A      1.077353   155A      1.078709   156A      1.084552  
     157A      1.103764   158A      1.116109   159A      1.126983  
     160A      1.132556   161A      1.140497   162A      1.149565  
     163A      1.167170   164A      1.171002   165A      1.174178  
     166A      1.197673   167A      1.210685   168A      1.217445  
     169A      1.260721   170A      1.278162   171A      1.290766  
     172A      1.297122   173A      1.302539   174A      1.312679  
     175A      1.318221   176A      1.347707   177A      1.384201  
     178A      1.385028   179A      1.398145   180A      1.451143  
     181A      1.495037   182A      1.503288   183A      1.515958  
     184A      1.518410   185A      1.541458   186A      1.574127  
     187A      1.574285   188A      1.596381   189A      1.652159  
     190A      1.661061   191A      1.671505   192A      1.705286  
     193A      1.724477   194A      1.782643   195A      1.799067  
     196A      1.807063   197A      1.864950   198A      1.881477  
     199A      1.924391   200A      1.964987   201A      2.022005  
     202A      2.025429   203A      2.039827   204A      2.072981  
     205A      2.101213   206A      2.107054   207A      2.119596  
     208A      2.126759   209A      2.131535   210A      2.135965  
     211A      2.149653   212A      2.168670   213A      2.178815  
     214A      2.185271   215A      2.229893   216A      2.252934  
     217A      2.267082   218A      2.275963   219A      2.300924  
     220A      2.308850   221A      2.327370   222A      2.332072  
     223A      2.377044   224A      2.405760   225A      2.413561  
     226A      2.417758   227A      2.455947   228A      2.471041  
     229A      2.494134   230A      2.496919   231A      2.514025  
     232A      2.526095   233A      2.545345   234A      2.545713  
     235A      2.577104   236A      2.585743   237A      2.600120  
     238A      2.633765   239A      2.696455   240A      2.734093  
     241A      2.747025   242A      2.767089   243A      2.790646  
     244A      2.794149   245A      2.803444   246A      2.829134  
     247A      2.837641   248A      2.867213   249A      2.896095  
     250A      2.933557   251A      2.949691   252A      2.952738  
     253A      2.980862   254A      3.043828   255A      3.051201  
     256A      3.069910   257A      3.076509   258A      3.132224  
     259A      3.159966   260A      3.183297   261A      3.199163  
     262A      3.208795   263A      3.213733   264A      3.334816  
     265A      3.341180   266A      3.354572   267A      3.355090  
     268A      3.363227   269A      3.459000   270A      3.494831  
     271A      3.518552   272A      3.569907   273A      3.609305  
     274A      3.707581   275A      3.727070   276A      3.768294  
     277A      3.778729   278A      3.798521   279A      3.858294  
     280A      3.871090   281A      4.004250   282A      4.109022  
     283A      4.213111   284A      4.637109   285A      4.639181  
     286A      4.696346   287A      4.772167   288A      4.880433  
     289A      5.021785   290A      5.255076   291A      5.373566  
     292A      5.495225   293A      5.610741   294A      5.716636  
     295A      5.884300   296A      6.090040   297A      6.198544  
     298A     18.255850   299A     18.590515   300A     19.300809  
     301A     25.312345   302A     25.453612  

    Final Occupation by Irrep:
              A 
    DOCC [    18 ]

  @DF-RHF Final Energy:  -224.84369627733125

   => Energetics <=

    Nuclear Repulsion Energy =            164.0866959977508657
    One-Electron Energy =                -628.9319563030323934
    Two-Electron Energy =                 240.0015640279502520
    Total Energy =                       -224.8436962773312473

Computation Completed


Properties will be evaluated at   0.000000,   0.000000,   0.000000 [a0]

Properties computed using the SCF density matrix

  Nuclear Dipole Moment: [e a0]
     X: -1327.1591      Y:   601.7089      Z:  -454.1384

  Electronic Dipole Moment: [e a0]
     X:  1327.9629      Y:  -601.5456      Z:   452.8060

  Dipole Moment: [e a0]
     X:     0.8038      Y:     0.1633      Z:    -1.3324     Total:     1.5646

  Dipole Moment: [D]
     X:     2.0431      Y:     0.4150      Z:    -3.3867     Total:     3.9769


*** tstop() called on ds1 at Tue Sep 14 17:41:18 2021
Module time:
	user time   =      15.98 seconds =       0.27 minutes
	system time =       0.31 seconds =       0.01 minutes
	total time  =          3 seconds =       0.05 minutes
Total time:
	user time   =      54.46 seconds =       0.91 minutes
	system time =       1.23 seconds =       0.02 minutes
	total time  =         12 seconds =       0.20 minutes
  Constructing Basis Sets for SAPT...

   => Loading Basis Set <=

    Name: (AUG-CC-PVDZ AUX)
    Role: RIFIT
    Keyword: DF_BASIS_SAPT
    atoms 1-2, 10-11 entry N          line   158 file /theoryfs2/ds/csargent/miniconda3/envs/cle/share/psi4/basis/aug-cc-pvdz-ri.gbs 
    atoms 3-6, 12-15 entry H          line    30 file /theoryfs2/ds/csargent/miniconda3/envs/cle/share/psi4/basis/aug-cc-pvdz-ri.gbs 
    atoms 7-9, 16-18 entry C          line   112 file /theoryfs2/ds/csargent/miniconda3/envs/cle/share/psi4/basis/aug-cc-pvdz-ri.gbs 


  //>>>>>>>>>>>>>>>>>>>>>>>>>>>>>>>>>>>//
  //               SAPT0               //
  //<<<<<<<<<<<<<<<<<<<<<<<<<<<<<<<<<<<//


*** tstart() called on ds1
*** at Tue Sep 14 17:41:18 2021

        SAPT0  
    Ed Hohenstein
     6 June 2009

      Orbital Information
  --------------------------
    NSO        =       302
    NMO        =       302
    NRI        =       904
    NOCC A     =        18
    NOCC B     =        18
    FOCC A     =         5
    FOCC B     =         5
    NVIR A     =       284
    NVIR B     =       284

    Elst10,r            =     0.000029794904 [Eh]
    Exch10              =    -0.000000000000 [Eh]
    Exch10 (S^2)        =    -0.000000000000 [Eh]

    Iter     Energy [mEh]          dE [mEh]         Residual      Time [s]
       1      -0.00000835       0.000008347       0.033604940             0
       2      -0.00000764      -0.000000711       0.008175765             0
       3      -0.00000849       0.000000855       0.002409447             1
       4      -0.00000855       0.000000057       0.000814708             1
       5      -0.00000853      -0.000000015       0.000286229             1
       6      -0.00000853      -0.000000007       0.000063818             1
       7      -0.00000853       0.000000001       0.000021877             1
       8      -0.00000853       0.000000001       0.000005900             1
       9      -0.00000853      -0.000000000       0.000002868             1
      10      -0.00000853      -0.000000000       0.000000971             1

    CHF Iterations converged


    Iter     Energy [mEh]          dE [mEh]         Residual      Time [s]
       1      -0.00001293       0.000012934       0.041242554             1
       2      -0.00001197      -0.000000962       0.010608999             1
       3      -0.00001344       0.000001470       0.003362971             1
       4      -0.00001355       0.000000108       0.001394417             1
       5      -0.00001351      -0.000000039       0.000516289             1
       6      -0.00001350      -0.000000013       0.000148459             1
       7      -0.00001351       0.000000006       0.000060150             1
       8      -0.00001351       0.000000001       0.000020584             1
       9      -0.00001351      -0.000000001       0.000006941             2
      10      -0.00001351      -0.000000000       0.000001828             2
      11      -0.00001351       0.000000000       0.000000509             2

    CHF Iterations converged

    Ind20,r (A<-B)      =    -0.000000008528 [Eh]
    Ind20,r (B<-A)      =    -0.000000013505 [Eh]
    Ind20,r             =    -0.000000022033 [Eh]
    Exch-Ind20,r (A<-B) =     0.000000000000 [Eh]
    Exch-Ind20,r (B<-A) =     0.000000000000 [Eh]
    Exch-Ind20,r        =     0.000000000000 [Eh]
    Disp20              =    -0.000000208534 [Eh]
    Disp20 (SS)         =    -0.000000104267 [Eh]
    Disp20 (OS)         =    -0.000000104267 [Eh]
    Exch-Disp20         =     0.000000000000 [Eh]
    Exch-Disp20 (SS)    =     0.000000000000 [Eh]
    Exch-Disp20 (OS)    =     0.000000000000 [Eh]

    SAPT Results 
  --------------------------------------------------------------------------------------------------------
    Electrostatics                  0.02979490 [mEh]       0.01869658 [kcal/mol]       0.07822651 [kJ/mol]
      Elst10,r                      0.02979490 [mEh]       0.01869658 [kcal/mol]       0.07822651 [kJ/mol]

    Exchange                       -0.00000000 [mEh]      -0.00000000 [kcal/mol]      -0.00000000 [kJ/mol]
      Exch10                       -0.00000000 [mEh]      -0.00000000 [kcal/mol]      -0.00000000 [kJ/mol]
      Exch10(S^2)                  -0.00000000 [mEh]      -0.00000000 [kcal/mol]      -0.00000000 [kJ/mol]

    Induction                      -0.00001602 [mEh]      -0.00001006 [kcal/mol]      -0.00004207 [kJ/mol]
      Ind20,r                      -0.00002203 [mEh]      -0.00001383 [kcal/mol]      -0.00005785 [kJ/mol]
      Exch-Ind20,r                  0.00000000 [mEh]       0.00000000 [kcal/mol]       0.00000000 [kJ/mol]
      delta HF,r (2)                0.00000601 [mEh]       0.00000377 [kcal/mol]       0.00001577 [kJ/mol]

    Dispersion                     -0.00020853 [mEh]      -0.00013086 [kcal/mol]      -0.00054751 [kJ/mol]
      Disp20                       -0.00020853 [mEh]      -0.00013086 [kcal/mol]      -0.00054751 [kJ/mol]
      Exch-Disp20                   0.00000000 [mEh]       0.00000000 [kcal/mol]       0.00000000 [kJ/mol]
      Disp20 (SS)                  -0.00010427 [mEh]      -0.00006543 [kcal/mol]      -0.00027375 [kJ/mol]
      Disp20 (OS)                  -0.00010427 [mEh]      -0.00006543 [kcal/mol]      -0.00027375 [kJ/mol]
      Exch-Disp20 (SS)              0.00000000 [mEh]       0.00000000 [kcal/mol]       0.00000000 [kJ/mol]
      Exch-Disp20 (OS)              0.00000000 [mEh]       0.00000000 [kcal/mol]       0.00000000 [kJ/mol]

  Total HF                          0.02977888 [mEh]       0.01868653 [kcal/mol]       0.07818444 [kJ/mol]
  Total SAPT0                       0.02957035 [mEh]       0.01855567 [kcal/mol]       0.07763693 [kJ/mol]

  Special recipe for scaled SAPT0 (see Manual):
    Electrostatics sSAPT0           0.02979490 [mEh]       0.01869658 [kcal/mol]       0.07822651 [kJ/mol]
    Exchange sSAPT0                -0.00000000 [mEh]      -0.00000000 [kcal/mol]      -0.00000000 [kJ/mol]
    Induction sSAPT0               -0.00001602 [mEh]      -0.00001006 [kcal/mol]      -0.00004207 [kJ/mol]
    Dispersion sSAPT0              -0.00020853 [mEh]      -0.00013086 [kcal/mol]      -0.00054751 [kJ/mol]
  Total sSAPT0                      0.02957035 [mEh]       0.01855567 [kcal/mol]       0.07763693 [kJ/mol]
  --------------------------------------------------------------------------------------------------------

*** tstop() called on ds1 at Tue Sep 14 17:41:27 2021
Module time:
	user time   =      42.87 seconds =       0.71 minutes
	system time =       3.61 seconds =       0.06 minutes
	total time  =          9 seconds =       0.15 minutes
Total time:
	user time   =      98.16 seconds =       1.64 minutes
	system time =       4.86 seconds =       0.08 minutes
	total time  =         21 seconds =       0.35 minutes


Warning! sapt0 does not have an associated derived wavefunction.The returned wavefunction is the dimer SCF wavefunction.


    Psi4 stopped on: Tuesday, 14 September 2021 05:41PM
    Psi4 wall time for execution: 0:00:21.00

*** Psi4 exiting successfully. Buy a developer a beer!
