
    -----------------------------------------------------------------------
          Psi4: An Open-Source Ab Initio Electronic Structure Package
                               Psi4 1.4rc3

                         Git: Rev {HEAD} 080dba6


    D. G. A. Smith, L. A. Burns, A. C. Simmonett, R. M. Parrish,
    M. C. Schieber, R. Galvelis, P. Kraus, H. Kruse, R. Di Remigio,
    A. Alenaizan, A. M. James, S. Lehtola, J. P. Misiewicz, M. Scheurer,
    R. A. Shaw, J. B. Schriber, Y. Xie, Z. L. Glick, D. A. Sirianni,
    J. S. O'Brien, J. M. Waldrop, A. Kumar, E. G. Hohenstein,
    B. P. Pritchard, B. R. Brooks, H. F. Schaefer III, A. Yu. Sokolov,
    K. Patkowski, A. E. DePrince III, U. Bozkaya, R. A. King,
    F. A. Evangelista, J. M. Turney, T. D. Crawford, C. D. Sherrill,
    J. Chem. Phys. 152(18) 184108 (2020). https://doi.org/10.1063/5.0006002

                            Additional Code Authors
    E. T. Seidl, C. L. Janssen, E. F. Valeev, M. L. Leininger,
    J. F. Gonthier, R. M. Richard, H. R. McAlexander, M. Saitow, X. Wang,
    P. Verma, and M. H. Lechner

             Previous Authors, Complete List of Code Contributors,
                       and Citations for Specific Modules
    https://github.com/psi4/psi4/blob/master/codemeta.json
    https://github.com/psi4/psi4/graphs/contributors
    http://psicode.org/psi4manual/master/introduction.html#citing-psifour

    -----------------------------------------------------------------------


    Psi4 started on: Tuesday, 14 September 2021 04:16PM

    Process ID: 31944
    Host:       ds1
    PSIDATADIR: /theoryfs2/ds/csargent/miniconda3/envs/cle/share/psi4
    Memory:     500.0 MiB
    Threads:    6

  ==> Input File <==

--------------------------------------------------------------------------
# PSI4 file produced by CrystaLattE

# Generated from:               imidazole.xyz
# Psithon input for N-mer:      2mer-0+306
# Number of atoms per monomer:  [9, 9]
# Number of replicas:           1
# COM priority:                 1.956114614341e-05
# Minimum COM separations:      19.640
# Separation priority:          3.488167138422e-05
# Minimum monomer separations:  16.196
# Cutoff priority:              1.139715308732e-06
# Nuclear repulsion energy:     363.10977934708035

memory 7 GB

molecule Dimer_0_306 {
  N           -4.29309621      -3.06837431       5.30516231
  N           -2.15847371      -2.92627296       1.72037448
  H           -0.02545587      -6.35903575       2.22046452
  H           -2.68566968      -6.53260241       6.61445954
  H           -4.74388423      -0.00609006       2.75615968
  H           -1.41045540      -2.24723147       0.00000000
  C           -1.43737991      -5.07504848       2.94065891
  C           -2.76900782      -5.14609916       5.13522880
  C           -3.85955036      -1.77728198       3.21093411
--
  N          -24.42199158      14.12182991     -20.87754540
  N          -26.55661408      13.97972855     -17.29275757
  H          -28.68963193      17.41249134     -17.79284761
  H          -26.02941811      17.58605800     -22.18684263
  H          -23.97120357      11.05954565     -18.32854276
  H          -27.30463239      13.30068706     -15.57238309
  C          -27.27770788      16.12850408     -18.51304200
  C          -25.94607997      16.19955476     -20.70761189
  C          -24.85553744      12.83073757     -18.78331720
units = au
no_com
no_reorient
}

set {
  e_convergence 10
  d_convergence 10
  scf_type df
  mp2_type df
  cc_type df
  freeze_core true
}

energy('sapt0/aug-cc-pvdz')

--------------------------------------------------------------------------

  Memory set to   6.519 GiB by Python driver.

Scratch directory: /scratch/csargent/psi4.31446.79897/

Scratch directory: /scratch/csargent/psi4.31446.79897/

  //>>>>>>>>>>>>>>>>>>>>>>>>>>>>>>>>>>>//
  //              Dimer HF             //
  //<<<<<<<<<<<<<<<<<<<<<<<<<<<<<<<<<<<//


*** tstart() called on ds1
*** at Tue Sep 14 16:16:08 2021

   => Loading Basis Set <=

    Name: AUG-CC-PVDZ
    Role: ORBITAL
    Keyword: BASIS
    atoms 1-2, 10-11 entry N          line   218 file /theoryfs2/ds/csargent/miniconda3/envs/cle/share/psi4/basis/aug-cc-pvdz.gbs
    atoms 3-6, 12-15 entry H          line    40 file /theoryfs2/ds/csargent/miniconda3/envs/cle/share/psi4/basis/aug-cc-pvdz.gbs
    atoms 7-9, 16-18 entry C          line   182 file /theoryfs2/ds/csargent/miniconda3/envs/cle/share/psi4/basis/aug-cc-pvdz.gbs


         ---------------------------------------------------------
                                   SCF
               by Justin Turney, Rob Parrish, Andy Simmonett
                          and Daniel G. A. Smith
                              RHF Reference
                        6 Threads,   6675 MiB Core
         ---------------------------------------------------------

  ==> Geometry <==

    Molecular point group: c1
    Full point group: C1

    Geometry (in Bohr), charge = 0, multiplicity = 1:

       Center              X                  Y                   Z               Mass
    ------------   -----------------  -----------------  -----------------  -----------------
         N           -4.293096210000    -3.068374310000     5.305162310000    14.003074004430
         N           -2.158473710000    -2.926272960000     1.720374480000    14.003074004430
         H           -0.025455870000    -6.359035750000     2.220464520000     1.007825032230
         H           -2.685669680000    -6.532602410000     6.614459540000     1.007825032230
         H           -4.743884230000    -0.006090060000     2.756159680000     1.007825032230
         H           -1.410455400000    -2.247231470000     0.000000000000     1.007825032230
         C           -1.437379910000    -5.075048480000     2.940658910000    12.000000000000
         C           -2.769007820000    -5.146099160000     5.135228800000    12.000000000000
         C           -3.859550360000    -1.777281980000     3.210934110000    12.000000000000
         N          -24.421991580000    14.121829910000   -20.877545400000    14.003074004430
         N          -26.556614080000    13.979728550000   -17.292757570000    14.003074004430
         H          -28.689631930000    17.412491340000   -17.792847610000     1.007825032230
         H          -26.029418110000    17.586058000000   -22.186842630000     1.007825032230
         H          -23.971203570000    11.059545650000   -18.328542760000     1.007825032230
         H          -27.304632390000    13.300687060000   -15.572383090000     1.007825032230
         C          -27.277707880000    16.128504080000   -18.513042000000    12.000000000000
         C          -25.946079970000    16.199554760000   -20.707611890000    12.000000000000
         C          -24.855537440000    12.830737570000   -18.783317200000    12.000000000000

  Running in c1 symmetry.

  Rotational constants: A =      0.02233  B =      0.00070  C =      0.00069 [cm^-1]
  Rotational constants: A =    669.40765  B =     21.08755  C =     20.54592 [MHz]
  Nuclear repulsion =  363.109779399466902

  Charge       = 0
  Multiplicity = 1
  Electrons    = 72
  Nalpha       = 36
  Nbeta        = 36

  ==> Algorithm <==

  SCF Algorithm Type is DF.
  DIIS enabled.
  MOM disabled.
  Fractional occupation disabled.
  Guess Type is SAD.
  Energy threshold   = 1.00e-10
  Density threshold  = 1.00e-10
  Integral threshold = 1.00e-12

  ==> Primary Basis <==

  Basis Set: AUG-CC-PVDZ
    Blend: AUG-CC-PVDZ
    Number of shells: 130
    Number of basis functions: 302
    Number of Cartesian functions: 322
    Spherical Harmonics?: true
    Max angular momentum: 2

   => Loading Basis Set <=

    Name: (AUG-CC-PVDZ AUX)
    Role: JKFIT
    Keyword: DF_BASIS_SCF
    atoms 1-2, 10-11 entry N          line   212 file /theoryfs2/ds/csargent/miniconda3/envs/cle/share/psi4/basis/aug-cc-pvdz-jkfit.gbs
    atoms 3-6, 12-15 entry H          line    70 file /theoryfs2/ds/csargent/miniconda3/envs/cle/share/psi4/basis/aug-cc-pvdz-jkfit.gbs
    atoms 7-9, 16-18 entry C          line   154 file /theoryfs2/ds/csargent/miniconda3/envs/cle/share/psi4/basis/aug-cc-pvdz-jkfit.gbs

  ==> Integral Setup <==

  ==> DiskDFJK: Density-Fitted J/K Matrices <==

    J tasked:                  Yes
    K tasked:                  Yes
    wK tasked:                  No
    OpenMP threads:              6
    Integrals threads:           6
    Memory [MiB]:             5006
    Algorithm:                Core
    Integral Cache:           SAVE
    Schwarz Cutoff:          1E-12
    Fitting Condition:       1E-10

   => Auxiliary Basis Set <=

  Basis Set: (AUG-CC-PVDZ AUX)
    Blend: AUG-CC-PVDZ-JKFIT
    Number of shells: 376
    Number of basis functions: 1116
    Number of Cartesian functions: 1290
    Spherical Harmonics?: true
    Max angular momentum: 3

  Minimum eigenvalue in the overlap matrix is 2.1837060086E-05.
  Reciprocal condition number of the overlap matrix is 1.8394511621E-06.
    Using symmetric orthogonalization.

  ==> Pre-Iterations <==

  SCF Guess: Superposition of Atomic Densities via on-the-fly atomic UHF (no occupation information).

   -------------------------
    Irrep   Nso     Nmo
   -------------------------
     A        302     302
   -------------------------
    Total     302     302
   -------------------------

  ==> Iterations <==

                           Total Energy        Delta E     RMS |[F,P]|

   @DF-RHF iter SAD:  -449.11714338836134   -4.49117e+02   0.00000e+00
   @DF-RHF iter   1:  -449.39623231760402   -2.79089e-01   2.30591e-03 DIIS
   @DF-RHF iter   2:  -449.61072568692532   -2.14493e-01   1.31120e-03 DIIS
   @DF-RHF iter   3:  -449.68342157314839   -7.26959e-02   2.45983e-04 DIIS
   @DF-RHF iter   4:  -449.68679008143431   -3.36851e-03   1.12911e-04 DIIS
   @DF-RHF iter   5:  -449.68739236077283   -6.02279e-04   1.78796e-05 DIIS
   @DF-RHF iter   6:  -449.68742701492346   -3.46542e-05   7.94431e-06 DIIS
   @DF-RHF iter   7:  -449.68743318859441   -6.17367e-06   3.10413e-06 DIIS
   @DF-RHF iter   8:  -449.68743465292766   -1.46433e-06   1.09981e-06 DIIS
   @DF-RHF iter   9:  -449.68743487462382   -2.21696e-07   2.66097e-07 DIIS
   @DF-RHF iter  10:  -449.68743488570072   -1.10769e-08   1.04006e-07 DIIS
   @DF-RHF iter  11:  -449.68743488736186   -1.66114e-09   4.62381e-08 DIIS
   @DF-RHF iter  12:  -449.68743488766597   -3.04112e-10   1.37539e-08 DIIS
   @DF-RHF iter  13:  -449.68743488769263   -2.66596e-11   5.07833e-09 DIIS
   @DF-RHF iter  14:  -449.68743488769502   -2.38742e-12   2.24062e-09 DIIS
   @DF-RHF iter  15:  -449.68743488769655   -1.53477e-12   7.46247e-10 DIIS
   @DF-RHF iter  16:  -449.68743488769678   -2.27374e-13   3.31858e-10 DIIS
   @DF-RHF iter  17:  -449.68743488769684   -5.68434e-14   6.65667e-11 DIIS
  Energy and wave function converged.


  ==> Post-Iterations <==

    Orbital Energies [Eh]
    ---------------------

    Doubly Occupied:

       1A    -15.637405     2A    -15.637405     3A    -15.551586
       4A    -15.551586     5A    -11.301278     6A    -11.301278
       7A    -11.263492     8A    -11.263492     9A    -11.245988
      10A    -11.245988    11A     -1.353211    12A     -1.353211
      13A     -1.169449    14A     -1.169449    15A     -1.012440
      16A     -1.012440    17A     -0.824730    18A     -0.824730
      19A     -0.804072    20A     -0.804072    21A     -0.761011
      22A     -0.761011    23A     -0.610439    24A     -0.610439
      25A     -0.604300    26A     -0.604300    27A     -0.602252
      28A     -0.602252    29A     -0.571296    30A     -0.571296
      31A     -0.435858    32A     -0.435858    33A     -0.400818
      34A     -0.400818    35A     -0.321027    36A     -0.321027

    Virtual:

      37A      0.025183    38A      0.025184    39A      0.041268
      40A      0.041277    41A      0.049641    42A      0.049644
      43A      0.061541    44A      0.061546    45A      0.088722
      46A      0.088722    47A      0.101000    48A      0.101000
      49A      0.120471    50A      0.120471    51A      0.125273
      52A      0.125273    53A      0.133246    54A      0.133246
      55A      0.133431    56A      0.133432    57A      0.140585
      58A      0.140585    59A      0.156246    60A      0.156246
      61A      0.158290    62A      0.158318    63A      0.171650
      64A      0.171653    65A      0.177859    66A      0.177859
      67A      0.186866    68A      0.186875    69A      0.211174
      70A      0.211174    71A      0.219915    72A      0.219917
      73A      0.231999    74A      0.231999    75A      0.241084
      76A      0.241084    77A      0.261283    78A      0.261283
      79A      0.267386    80A      0.267386    81A      0.277509
      82A      0.277509    83A      0.301393    84A      0.301394
      85A      0.314029    86A      0.314029    87A      0.337868
      88A      0.337868    89A      0.361188    90A      0.361189
      91A      0.370423    92A      0.370423    93A      0.379503
      94A      0.379504    95A      0.387957    96A      0.387960
      97A      0.396774    98A      0.396780    99A      0.416643
     100A      0.416665   101A      0.428630   102A      0.428630
     103A      0.451702   104A      0.451702   105A      0.466009
     106A      0.466009   107A      0.480900   108A      0.480900
     109A      0.485960   110A      0.485960   111A      0.487807
     112A      0.487807   113A      0.551364   114A      0.551364
     115A      0.556053   116A      0.556056   117A      0.567938
     118A      0.567938   119A      0.576116   120A      0.576116
     121A      0.593923   122A      0.593924   123A      0.598623
     124A      0.598624   125A      0.615726   126A      0.615726
     127A      0.636213   128A      0.636213   129A      0.652149
     130A      0.652149   131A      0.668939   132A      0.668939
     133A      0.670995   134A      0.670995   135A      0.677849
     136A      0.677849   137A      0.683548   138A      0.683548
     139A      0.714365   140A      0.714365   141A      0.725440
     142A      0.725440   143A      0.740890   144A      0.740891
     145A      0.762345   146A      0.762346   147A      0.767041
     148A      0.767043   149A      0.790596   150A      0.790596
     151A      0.793233   152A      0.793233   153A      0.809411
     154A      0.809413   155A      0.860053   156A      0.860056
     157A      0.871081   158A      0.871082   159A      0.885405
     160A      0.885405   161A      0.889502   162A      0.889502
     163A      0.954005   164A      0.954005   165A      0.976622
     166A      0.976622   167A      0.998007   168A      0.998008
     169A      1.010332   170A      1.010332   171A      1.017056
     172A      1.017056   173A      1.030329   174A      1.030329
     175A      1.076984   176A      1.076985   177A      1.084198
     178A      1.084198   179A      1.126637   180A      1.126638
     181A      1.140143   182A      1.140145   183A      1.149223
     184A      1.149224   185A      1.166820   186A      1.166823
     187A      1.217087   188A      1.217087   189A      1.260397
     190A      1.260397   191A      1.302192   192A      1.302192
     193A      1.384687   194A      1.384687   195A      1.397782
     196A      1.397782   197A      1.450794   198A      1.450794
     199A      1.502933   200A      1.502933   201A      1.518069
     202A      1.518069   203A      1.573792   204A      1.573793
     205A      1.573936   206A      1.573936   207A      1.596038
     208A      1.596043   209A      1.651809   210A      1.651809
     211A      1.671173   212A      1.671173   213A      1.704951
     214A      1.704951   215A      1.724101   216A      1.724101
     217A      1.782309   218A      1.782309   219A      1.798728
     220A      1.798729   221A      1.806723   222A      1.806723
     223A      1.864593   224A      1.864596   225A      1.881115
     226A      1.881117   227A      1.924033   228A      1.924033
     229A      1.964642   230A      1.964642   231A      2.021681
     232A      2.021681   233A      2.025098   234A      2.025098
     235A      2.072643   236A      2.072643   237A      2.106712
     238A      2.106712   239A      2.126424   240A      2.126424
     241A      2.135629   242A      2.135629   243A      2.168333
     244A      2.168333   245A      2.178475   246A      2.178475
     247A      2.266741   248A      2.266741   249A      2.275608
     250A      2.275608   251A      2.300565   252A      2.300565
     253A      2.331722   254A      2.331722   255A      2.417429
     256A      2.417429   257A      2.496586   258A      2.496586
     259A      2.513673   260A      2.513673   261A      2.545011
     262A      2.545011   263A      2.585406   264A      2.585406
     265A      2.633420   266A      2.633420   267A      2.733758
     268A      2.733758   269A      2.746672   270A      2.746672
     271A      2.766750   272A      2.766751   273A      2.793805
     274A      2.793805   275A      2.803090   276A      2.803090
     277A      2.837305   278A      2.837307   279A      2.866862
     280A      2.866862   281A      2.952397   282A      2.952397
     283A      2.980503   284A      2.980503   285A      3.050863
     286A      3.050863   287A      3.069568   288A      3.069568
     289A      3.198812   290A      3.198812   291A      3.208451
     292A      3.208452   293A      3.334466   294A      3.334466
     295A      3.354221   296A      3.354222   297A      3.518201
     298A      3.518201   299A      3.767940   300A      3.767941
     301A      4.108692   302A      4.108692

    Final Occupation by Irrep:
              A
    DOCC [    36 ]

  @DF-RHF Final Energy:  -449.68743488769684

   => Energetics <=

    Nuclear Repulsion Energy =            363.1097793994669019
    One-Electron Energy =               -1327.7118249737854967
    Two-Electron Energy =                 514.9146106866216996
    Total Energy =                       -449.6874348876968952

Computation Completed


Properties will be evaluated at   0.000000,   0.000000,   0.000000 [a0]

Properties computed using the SCF density matrix

  Nuclear Dipole Moment: [e a0]
     X: -1033.7432      Y:   397.9244      Z:  -560.6058

  Electronic Dipole Moment: [e a0]
     X:  1033.7432      Y:  -397.9244      Z:   560.6058

  Dipole Moment: [e a0]
     X:    -0.0000      Y:    -0.0000      Z:    -0.0000     Total:     0.0000

  Dipole Moment: [D]
     X:    -0.0000      Y:    -0.0000      Z:    -0.0000     Total:     0.0000


*** tstop() called on ds1 at Tue Sep 14 16:16:13 2021
Module time:
	user time   =      22.17 seconds =       0.37 minutes
	system time =       0.55 seconds =       0.01 minutes
	total time  =          5 seconds =       0.08 minutes
Total time:
	user time   =      22.17 seconds =       0.37 minutes
	system time =       0.55 seconds =       0.01 minutes
	total time  =          5 seconds =       0.08 minutes

  //>>>>>>>>>>>>>>>>>>>>>>>>>>>>>>>>>>>//
  //            Monomer A HF           //
  //<<<<<<<<<<<<<<<<<<<<<<<<<<<<<<<<<<<//


*** tstart() called on ds1
*** at Tue Sep 14 16:16:13 2021

   => Loading Basis Set <=

    Name: AUG-CC-PVDZ
    Role: ORBITAL
    Keyword: BASIS
    atoms 1-2, 10-11 entry N          line   218 file /theoryfs2/ds/csargent/miniconda3/envs/cle/share/psi4/basis/aug-cc-pvdz.gbs
    atoms 3-6, 12-15 entry H          line    40 file /theoryfs2/ds/csargent/miniconda3/envs/cle/share/psi4/basis/aug-cc-pvdz.gbs
    atoms 7-9, 16-18 entry C          line   182 file /theoryfs2/ds/csargent/miniconda3/envs/cle/share/psi4/basis/aug-cc-pvdz.gbs


         ---------------------------------------------------------
                                   SCF
               by Justin Turney, Rob Parrish, Andy Simmonett
                          and Daniel G. A. Smith
                              RHF Reference
                        6 Threads,   6675 MiB Core
         ---------------------------------------------------------

  ==> Geometry <==

    Molecular point group: c1
    Full point group: C1

    Geometry (in Bohr), charge = 0, multiplicity = 1:

       Center              X                  Y                   Z               Mass
    ------------   -----------------  -----------------  -----------------  -----------------
         N           -4.293096210000    -3.068374310000     5.305162310000    14.003074004430
         N           -2.158473710000    -2.926272960000     1.720374480000    14.003074004430
         H           -0.025455870000    -6.359035750000     2.220464520000     1.007825032230
         H           -2.685669680000    -6.532602410000     6.614459540000     1.007825032230
         H           -4.743884230000    -0.006090060000     2.756159680000     1.007825032230
         H           -1.410455400000    -2.247231470000     0.000000000000     1.007825032230
         C           -1.437379910000    -5.075048480000     2.940658910000    12.000000000000
         C           -2.769007820000    -5.146099160000     5.135228800000    12.000000000000
         C           -3.859550360000    -1.777281980000     3.210934110000    12.000000000000
      Gh(N)         -24.421991580000    14.121829910000   -20.877545400000    14.003074004430
      Gh(N)         -26.556614080000    13.979728550000   -17.292757570000    14.003074004430
      Gh(H)         -28.689631930000    17.412491340000   -17.792847610000     1.007825032230
      Gh(H)         -26.029418110000    17.586058000000   -22.186842630000     1.007825032230
      Gh(H)         -23.971203570000    11.059545650000   -18.328542760000     1.007825032230
      Gh(H)         -27.304632390000    13.300687060000   -15.572383090000     1.007825032230
      Gh(C)         -27.277707880000    16.128504080000   -18.513042000000    12.000000000000
      Gh(C)         -25.946079970000    16.199554760000   -20.707611890000    12.000000000000
      Gh(C)         -24.855537440000    12.830737570000   -18.783317200000    12.000000000000

  Running in c1 symmetry.

  Rotational constants: A =      0.02233  B =      0.00070  C =      0.00069 [cm^-1]
  Rotational constants: A =    669.40765  B =     21.08755  C =     20.54592 [MHz]
  Nuclear repulsion =  164.086695994184396

  Charge       = 0
  Multiplicity = 1
  Electrons    = 36
  Nalpha       = 18
  Nbeta        = 18

  ==> Algorithm <==

  SCF Algorithm Type is DF.
  DIIS enabled.
  MOM disabled.
  Fractional occupation disabled.
  Guess Type is SAD.
  Energy threshold   = 1.00e-10
  Density threshold  = 1.00e-10
  Integral threshold = 1.00e-12

  ==> Primary Basis <==

  Basis Set: AUG-CC-PVDZ
    Blend: AUG-CC-PVDZ
    Number of shells: 130
    Number of basis functions: 302
    Number of Cartesian functions: 322
    Spherical Harmonics?: true
    Max angular momentum: 2

   => Loading Basis Set <=

    Name: (AUG-CC-PVDZ AUX)
    Role: JKFIT
    Keyword: DF_BASIS_SCF
    atoms 1-2, 10-11 entry N          line   212 file /theoryfs2/ds/csargent/miniconda3/envs/cle/share/psi4/basis/aug-cc-pvdz-jkfit.gbs
    atoms 3-6, 12-15 entry H          line    70 file /theoryfs2/ds/csargent/miniconda3/envs/cle/share/psi4/basis/aug-cc-pvdz-jkfit.gbs
    atoms 7-9, 16-18 entry C          line   154 file /theoryfs2/ds/csargent/miniconda3/envs/cle/share/psi4/basis/aug-cc-pvdz-jkfit.gbs

  ==> Integral Setup <==

  ==> DiskDFJK: Density-Fitted J/K Matrices <==

    J tasked:                  Yes
    K tasked:                  Yes
    wK tasked:                  No
    OpenMP threads:              6
    Integrals threads:           6
    Memory [MiB]:             5006
    Algorithm:                Core
    Integral Cache:           LOAD
    Schwarz Cutoff:          1E-12
    Fitting Condition:       1E-10

   => Auxiliary Basis Set <=

  Basis Set: (AUG-CC-PVDZ AUX)
    Blend: AUG-CC-PVDZ-JKFIT
    Number of shells: 376
    Number of basis functions: 1116
    Number of Cartesian functions: 1290
    Spherical Harmonics?: true
    Max angular momentum: 3

  Minimum eigenvalue in the overlap matrix is 2.1837060086E-05.
  Reciprocal condition number of the overlap matrix is 1.8394511621E-06.
    Using symmetric orthogonalization.

  ==> Pre-Iterations <==

  SCF Guess: Superposition of Atomic Densities via on-the-fly atomic UHF (no occupation information).

   -------------------------
    Irrep   Nso     Nmo
   -------------------------
     A        302     302
   -------------------------
    Total     302     302
   -------------------------

  ==> Iterations <==

                           Total Energy        Delta E     RMS |[F,P]|

   @DF-RHF iter SAD:  -224.55857169477076   -2.24559e+02   0.00000e+00
   @DF-RHF iter   1:  -224.69806464749377   -1.39493e-01   1.63067e-03 DIIS
   @DF-RHF iter   2:  -224.80532026613594   -1.07256e-01   9.27384e-04 DIIS
   @DF-RHF iter   3:  -224.84168817009493   -3.63679e-02   1.74019e-04 DIIS
   @DF-RHF iter   4:  -224.84337342216682   -1.68525e-03   7.98972e-05 DIIS
   @DF-RHF iter   5:  -224.84367500287854   -3.01581e-04   1.26452e-05 DIIS
   @DF-RHF iter   6:  -224.84369233991100   -1.73370e-05   5.61871e-06 DIIS
   @DF-RHF iter   7:  -224.84369542798058   -3.08807e-06   2.19503e-06 DIIS
   @DF-RHF iter   8:  -224.84369615989868   -7.31918e-07   7.77587e-07 DIIS
   @DF-RHF iter   9:  -224.84369627069299   -1.10794e-07   1.87961e-07 DIIS
   @DF-RHF iter  10:  -224.84369627622848   -5.53550e-09   7.33125e-08 DIIS
   @DF-RHF iter  11:  -224.84369627705482   -8.26333e-10   3.26918e-08 DIIS
   @DF-RHF iter  12:  -224.84369627720682   -1.51999e-10   9.70884e-09 DIIS
   @DF-RHF iter  13:  -224.84369627722012   -1.33014e-11   3.58840e-09 DIIS
   @DF-RHF iter  14:  -224.84369627722148   -1.36424e-12   1.58275e-09 DIIS
   @DF-RHF iter  15:  -224.84369627722214   -6.53699e-13   5.27556e-10 DIIS
   @DF-RHF iter  16:  -224.84369627722174    3.97904e-13   2.34517e-10 DIIS
   @DF-RHF iter  17:  -224.84369627722219   -4.54747e-13   4.71136e-11 DIIS
  Energy and wave function converged.


  ==> Post-Iterations <==

    Orbital Energies [Eh]
    ---------------------

    Doubly Occupied:

       1A    -15.637071     2A    -15.551216     3A    -11.300916
       4A    -11.263160     5A    -11.245653     6A     -1.352867
       7A     -1.169098     8A     -1.012098     9A     -0.824390
      10A     -0.803731    11A     -0.760666    12A     -0.610096
      13A     -0.603958    14A     -0.601922    15A     -0.570942
      16A     -0.435483    17A     -0.400464    18A     -0.320685

    Virtual:

      19A      0.022337    20A      0.025388    21A      0.039820
      22A      0.041580    23A      0.043423    24A      0.049997
      25A      0.061864    26A      0.067540    27A      0.076269
      28A      0.085906    29A      0.089096    30A      0.097327
      31A      0.101397    32A      0.120831    33A      0.124390
      34A      0.124789    35A      0.125577    36A      0.126609
      37A      0.127041    38A      0.133472    39A      0.133772
      40A      0.133798    41A      0.137937    42A      0.140942
      43A      0.156500    44A      0.156518    45A      0.158699
      46A      0.171988    47A      0.178189    48A      0.187224
      49A      0.191992    50A      0.207548    51A      0.209129
      52A      0.211559    53A      0.212207    54A      0.219988
      55A      0.220268    56A      0.222311    57A      0.232359
      58A      0.232888    59A      0.241408    60A      0.261605
      61A      0.267803    62A      0.271911    63A      0.277911
      64A      0.299085    65A      0.301746    66A      0.306210
      67A      0.314442    68A      0.319010    69A      0.338197
      70A      0.359895    71A      0.361488    72A      0.370745
      73A      0.375322    74A      0.379800    75A      0.388291
      76A      0.393191    77A      0.397097    78A      0.417031
      79A      0.427217    80A      0.429000    81A      0.435037
      82A      0.440121    83A      0.448833    84A      0.451948
      85A      0.452059    86A      0.466350    87A      0.467952
      88A      0.480795    89A      0.481229    90A      0.486283
      91A      0.488151    92A      0.517109    93A      0.520384
      94A      0.535731    95A      0.538066    96A      0.542920
      97A      0.551710    98A      0.555626    99A      0.556382
     100A      0.568280   101A      0.576474   102A      0.579199
     103A      0.587332   104A      0.594249   105A      0.598939
     106A      0.606248   107A      0.611808   108A      0.616080
     109A      0.618136   110A      0.636538   111A      0.639574
     112A      0.652504   113A      0.669282   114A      0.671337
     115A      0.677439   116A      0.678185   117A      0.683571
     118A      0.683874   119A      0.710947   120A      0.714698
     121A      0.725758   122A      0.735909   123A      0.741238
     124A      0.755929   125A      0.762698   126A      0.767400
     127A      0.790929   128A      0.793606   129A      0.798035
     130A      0.809747   131A      0.810278   132A      0.812227
     133A      0.823094   134A      0.836391   135A      0.859423
     136A      0.860398   137A      0.871425   138A      0.885765
     139A      0.886337   140A      0.889823   141A      0.909540
     142A      0.919441   143A      0.926699   144A      0.954351
     145A      0.968538   146A      0.976964   147A      0.991611
     148A      0.998360   149A      1.010706   150A      1.015239
     151A      1.017404   152A      1.030676   153A      1.058827
     154A      1.077353   155A      1.078431   156A      1.084552
     157A      1.103459   158A      1.115842   159A      1.126983
     160A      1.132309   161A      1.140497   162A      1.149565
     163A      1.167170   164A      1.170696   165A      1.173863
     166A      1.197359   167A      1.210398   168A      1.217445
     169A      1.260721   170A      1.277810   171A      1.290447
     172A      1.296786   173A      1.302539   174A      1.312369
     175A      1.317924   176A      1.347378   177A      1.383942
     178A      1.385028   179A      1.398145   180A      1.451143
     181A      1.494740   182A      1.503288   183A      1.515649
     184A      1.518410   185A      1.541172   186A      1.574127
     187A      1.574285   188A      1.596381   189A      1.652159
     190A      1.660768   191A      1.671505   192A      1.705286
     193A      1.724477   194A      1.782643   195A      1.799067
     196A      1.807063   197A      1.864950   198A      1.881477
     199A      1.924391   200A      1.964987   201A      2.022005
     202A      2.025429   203A      2.039539   204A      2.072981
     205A      2.100895   206A      2.107054   207A      2.119263
     208A      2.126759   209A      2.131238   210A      2.135965
     211A      2.149364   212A      2.168670   213A      2.178815
     214A      2.185008   215A      2.229634   216A      2.252628
     217A      2.267082   218A      2.275963   219A      2.300924
     220A      2.308572   221A      2.327043   222A      2.332072
     223A      2.376706   224A      2.405590   225A      2.413319
     226A      2.417758   227A      2.455693   228A      2.470755
     229A      2.493875   230A      2.496919   231A      2.514025
     232A      2.525784   233A      2.545345   234A      2.545388
     235A      2.576838   236A      2.585743   237A      2.599833
     238A      2.633765   239A      2.696232   240A      2.734093
     241A      2.747025   242A      2.767089   243A      2.790311
     244A      2.794149   245A      2.803444   246A      2.828847
     247A      2.837641   248A      2.867213   249A      2.895736
     250A      2.933302   251A      2.949447   252A      2.952738
     253A      2.980862   254A      3.043511   255A      3.051201
     256A      3.069910   257A      3.076217   258A      3.131916
     259A      3.159653   260A      3.182971   261A      3.199163
     262A      3.208795   263A      3.213407   264A      3.334816
     265A      3.340897   266A      3.354572   267A      3.354790
     268A      3.362951   269A      3.458713   270A      3.494460
     271A      3.518552   272A      3.569673   273A      3.608933
     274A      3.707300   275A      3.726780   276A      3.768294
     277A      3.778448   278A      3.798267   279A      3.858014
     280A      3.870768   281A      4.003930   282A      4.109022
     283A      4.212819   284A      4.636809   285A      4.638871
     286A      4.696029   287A      4.771868   288A      4.880151
     289A      5.021484   290A      5.254721   291A      5.373250
     292A      5.494878   293A      5.610462   294A      5.716374
     295A      5.883983   296A      6.089800   297A      6.198219
     298A     18.255573   299A     18.590166   300A     19.300534
     301A     25.311952   302A     25.453370

    Final Occupation by Irrep:
              A
    DOCC [    18 ]

  @DF-RHF Final Energy:  -224.84369627722219

   => Energetics <=

    Nuclear Repulsion Energy =            164.0866959941843959
    One-Electron Energy =                -628.9319562983265541
    Two-Electron Energy =                 240.0015640269199366
    Total Energy =                       -224.8436962772221932

Computation Completed


Properties will be evaluated at   0.000000,   0.000000,   0.000000 [a0]

Properties computed using the SCF density matrix

  Nuclear Dipole Moment: [e a0]
     X:  -102.4221      Y:  -129.0981      Z:   128.4908

  Electronic Dipole Moment: [e a0]
     X:   103.2259      Y:   129.2613      Z:  -129.8232

  Dipole Moment: [e a0]
     X:     0.8038      Y:     0.1633      Z:    -1.3324     Total:     1.5646

  Dipole Moment: [D]
     X:     2.0431      Y:     0.4150      Z:    -3.3867     Total:     3.9769


*** tstop() called on ds1 at Tue Sep 14 16:16:16 2021
Module time:
	user time   =      15.64 seconds =       0.26 minutes
	system time =       0.34 seconds =       0.01 minutes
	total time  =          3 seconds =       0.05 minutes
Total time:
	user time   =      37.94 seconds =       0.63 minutes
	system time =       0.89 seconds =       0.01 minutes
	total time  =          8 seconds =       0.13 minutes

  //>>>>>>>>>>>>>>>>>>>>>>>>>>>>>>>>>>>//
  //            Monomer B HF           //
  //<<<<<<<<<<<<<<<<<<<<<<<<<<<<<<<<<<<//


*** tstart() called on ds1
*** at Tue Sep 14 16:16:16 2021

   => Loading Basis Set <=

    Name: AUG-CC-PVDZ
    Role: ORBITAL
    Keyword: BASIS
    atoms 1-2, 10-11 entry N          line   218 file /theoryfs2/ds/csargent/miniconda3/envs/cle/share/psi4/basis/aug-cc-pvdz.gbs
    atoms 3-6, 12-15 entry H          line    40 file /theoryfs2/ds/csargent/miniconda3/envs/cle/share/psi4/basis/aug-cc-pvdz.gbs
    atoms 7-9, 16-18 entry C          line   182 file /theoryfs2/ds/csargent/miniconda3/envs/cle/share/psi4/basis/aug-cc-pvdz.gbs


         ---------------------------------------------------------
                                   SCF
               by Justin Turney, Rob Parrish, Andy Simmonett
                          and Daniel G. A. Smith
                              RHF Reference
                        6 Threads,   6675 MiB Core
         ---------------------------------------------------------

  ==> Geometry <==

    Molecular point group: c1
    Full point group: C1

    Geometry (in Bohr), charge = 0, multiplicity = 1:

       Center              X                  Y                   Z               Mass
    ------------   -----------------  -----------------  -----------------  -----------------
      Gh(N)          -4.293096210000    -3.068374310000     5.305162310000    14.003074004430
      Gh(N)          -2.158473710000    -2.926272960000     1.720374480000    14.003074004430
      Gh(H)          -0.025455870000    -6.359035750000     2.220464520000     1.007825032230
      Gh(H)          -2.685669680000    -6.532602410000     6.614459540000     1.007825032230
      Gh(H)          -4.743884230000    -0.006090060000     2.756159680000     1.007825032230
      Gh(H)          -1.410455400000    -2.247231470000     0.000000000000     1.007825032230
      Gh(C)          -1.437379910000    -5.075048480000     2.940658910000    12.000000000000
      Gh(C)          -2.769007820000    -5.146099160000     5.135228800000    12.000000000000
      Gh(C)          -3.859550360000    -1.777281980000     3.210934110000    12.000000000000
         N          -24.421991580000    14.121829910000   -20.877545400000    14.003074004430
         N          -26.556614080000    13.979728550000   -17.292757570000    14.003074004430
         H          -28.689631930000    17.412491340000   -17.792847610000     1.007825032230
         H          -26.029418110000    17.586058000000   -22.186842630000     1.007825032230
         H          -23.971203570000    11.059545650000   -18.328542760000     1.007825032230
         H          -27.304632390000    13.300687060000   -15.572383090000     1.007825032230
         C          -27.277707880000    16.128504080000   -18.513042000000    12.000000000000
         C          -25.946079970000    16.199554760000   -20.707611890000    12.000000000000
         C          -24.855537440000    12.830737570000   -18.783317200000    12.000000000000

  Running in c1 symmetry.

  Rotational constants: A =      0.02233  B =      0.00070  C =      0.00069 [cm^-1]
  Rotational constants: A =    669.40765  B =     21.08755  C =     20.54592 [MHz]
  Nuclear repulsion =  164.086695909478863

  Charge       = 0
  Multiplicity = 1
  Electrons    = 36
  Nalpha       = 18
  Nbeta        = 18

  ==> Algorithm <==

  SCF Algorithm Type is DF.
  DIIS enabled.
  MOM disabled.
  Fractional occupation disabled.
  Guess Type is SAD.
  Energy threshold   = 1.00e-10
  Density threshold  = 1.00e-10
  Integral threshold = 1.00e-12

  ==> Primary Basis <==

  Basis Set: AUG-CC-PVDZ
    Blend: AUG-CC-PVDZ
    Number of shells: 130
    Number of basis functions: 302
    Number of Cartesian functions: 322
    Spherical Harmonics?: true
    Max angular momentum: 2

   => Loading Basis Set <=

    Name: (AUG-CC-PVDZ AUX)
    Role: JKFIT
    Keyword: DF_BASIS_SCF
    atoms 1-2, 10-11 entry N          line   212 file /theoryfs2/ds/csargent/miniconda3/envs/cle/share/psi4/basis/aug-cc-pvdz-jkfit.gbs
    atoms 3-6, 12-15 entry H          line    70 file /theoryfs2/ds/csargent/miniconda3/envs/cle/share/psi4/basis/aug-cc-pvdz-jkfit.gbs
    atoms 7-9, 16-18 entry C          line   154 file /theoryfs2/ds/csargent/miniconda3/envs/cle/share/psi4/basis/aug-cc-pvdz-jkfit.gbs

  ==> Integral Setup <==

  ==> DiskDFJK: Density-Fitted J/K Matrices <==

    J tasked:                  Yes
    K tasked:                  Yes
    wK tasked:                  No
    OpenMP threads:              6
    Integrals threads:           6
    Memory [MiB]:             5006
    Algorithm:                Core
    Integral Cache:           LOAD
    Schwarz Cutoff:          1E-12
    Fitting Condition:       1E-10

   => Auxiliary Basis Set <=

  Basis Set: (AUG-CC-PVDZ AUX)
    Blend: AUG-CC-PVDZ-JKFIT
    Number of shells: 376
    Number of basis functions: 1116
    Number of Cartesian functions: 1290
    Spherical Harmonics?: true
    Max angular momentum: 3

  Minimum eigenvalue in the overlap matrix is 2.1837060086E-05.
  Reciprocal condition number of the overlap matrix is 1.8394511621E-06.
    Using symmetric orthogonalization.

  ==> Pre-Iterations <==

  SCF Guess: Superposition of Atomic Densities via on-the-fly atomic UHF (no occupation information).

   -------------------------
    Irrep   Nso     Nmo
   -------------------------
     A        302     302
   -------------------------
    Total     302     302
   -------------------------

  ==> Iterations <==

                           Total Energy        Delta E     RMS |[F,P]|

   @DF-RHF iter SAD:  -224.55857168742395   -2.24559e+02   0.00000e+00
   @DF-RHF iter   1:  -224.69806464841915   -1.39493e-01   1.63067e-03 DIIS
   @DF-RHF iter   2:  -224.80532026683363   -1.07256e-01   9.27384e-04 DIIS
   @DF-RHF iter   3:  -224.84168817089883   -3.63679e-02   1.74019e-04 DIIS
   @DF-RHF iter   4:  -224.84337342298159   -1.68525e-03   7.98972e-05 DIIS
   @DF-RHF iter   5:  -224.84367500369524   -3.01581e-04   1.26452e-05 DIIS
   @DF-RHF iter   6:  -224.84369234072764   -1.73370e-05   5.61871e-06 DIIS
   @DF-RHF iter   7:  -224.84369542879699   -3.08807e-06   2.19503e-06 DIIS
   @DF-RHF iter   8:  -224.84369616071496   -7.31918e-07   7.77587e-07 DIIS
   @DF-RHF iter   9:  -224.84369627150915   -1.10794e-07   1.87961e-07 DIIS
   @DF-RHF iter  10:  -224.84369627704461   -5.53547e-09   7.33125e-08 DIIS
   @DF-RHF iter  11:  -224.84369627787137   -8.26759e-10   3.26918e-08 DIIS
   @DF-RHF iter  12:  -224.84369627802312   -1.51744e-10   9.70884e-09 DIIS
   @DF-RHF iter  13:  -224.84369627803653   -1.34150e-11   3.58840e-09 DIIS
   @DF-RHF iter  14:  -224.84369627803792   -1.39266e-12   1.58275e-09 DIIS
   @DF-RHF iter  15:  -224.84369627803849   -5.68434e-13   5.27556e-10 DIIS
   @DF-RHF iter  16:  -224.84369627803807    4.26326e-13   2.34517e-10 DIIS
   @DF-RHF iter  17:  -224.84369627803821   -1.42109e-13   4.71137e-11 DIIS
  Energy and wave function converged.


  ==> Post-Iterations <==

    Orbital Energies [Eh]
    ---------------------

    Doubly Occupied:

       1A    -15.637071     2A    -15.551216     3A    -11.300916
       4A    -11.263160     5A    -11.245653     6A     -1.352867
       7A     -1.169098     8A     -1.012098     9A     -0.824390
      10A     -0.803731    11A     -0.760666    12A     -0.610096
      13A     -0.603958    14A     -0.601922    15A     -0.570942
      16A     -0.435483    17A     -0.400464    18A     -0.320685

    Virtual:

      19A      0.022337    20A      0.025388    21A      0.039820
      22A      0.041580    23A      0.043423    24A      0.049997
      25A      0.061864    26A      0.067540    27A      0.076269
      28A      0.085906    29A      0.089096    30A      0.097327
      31A      0.101397    32A      0.120831    33A      0.124390
      34A      0.124789    35A      0.125577    36A      0.126609
      37A      0.127041    38A      0.133472    39A      0.133772
      40A      0.133798    41A      0.137937    42A      0.140942
      43A      0.156500    44A      0.156518    45A      0.158699
      46A      0.171988    47A      0.178189    48A      0.187224
      49A      0.191992    50A      0.207548    51A      0.209129
      52A      0.211559    53A      0.212207    54A      0.219988
      55A      0.220268    56A      0.222311    57A      0.232359
      58A      0.232888    59A      0.241408    60A      0.261605
      61A      0.267803    62A      0.271911    63A      0.277911
      64A      0.299085    65A      0.301746    66A      0.306210
      67A      0.314442    68A      0.319010    69A      0.338197
      70A      0.359895    71A      0.361488    72A      0.370745
      73A      0.375322    74A      0.379800    75A      0.388291
      76A      0.393191    77A      0.397097    78A      0.417031
      79A      0.427217    80A      0.429000    81A      0.435037
      82A      0.440121    83A      0.448833    84A      0.451948
      85A      0.452059    86A      0.466350    87A      0.467952
      88A      0.480795    89A      0.481229    90A      0.486283
      91A      0.488151    92A      0.517109    93A      0.520384
      94A      0.535731    95A      0.538066    96A      0.542920
      97A      0.551710    98A      0.555626    99A      0.556382
     100A      0.568280   101A      0.576474   102A      0.579199
     103A      0.587332   104A      0.594249   105A      0.598939
     106A      0.606248   107A      0.611808   108A      0.616080
     109A      0.618136   110A      0.636538   111A      0.639574
     112A      0.652504   113A      0.669282   114A      0.671337
     115A      0.677439   116A      0.678185   117A      0.683571
     118A      0.683874   119A      0.710947   120A      0.714698
     121A      0.725758   122A      0.735909   123A      0.741238
     124A      0.755929   125A      0.762698   126A      0.767400
     127A      0.790929   128A      0.793606   129A      0.798035
     130A      0.809747   131A      0.810278   132A      0.812227
     133A      0.823094   134A      0.836391   135A      0.859423
     136A      0.860398   137A      0.871425   138A      0.885765
     139A      0.886337   140A      0.889823   141A      0.909540
     142A      0.919441   143A      0.926699   144A      0.954351
     145A      0.968538   146A      0.976964   147A      0.991611
     148A      0.998360   149A      1.010706   150A      1.015239
     151A      1.017404   152A      1.030676   153A      1.058827
     154A      1.077353   155A      1.078431   156A      1.084552
     157A      1.103459   158A      1.115842   159A      1.126983
     160A      1.132309   161A      1.140497   162A      1.149565
     163A      1.167170   164A      1.170696   165A      1.173863
     166A      1.197359   167A      1.210398   168A      1.217445
     169A      1.260721   170A      1.277810   171A      1.290447
     172A      1.296786   173A      1.302539   174A      1.312369
     175A      1.317924   176A      1.347378   177A      1.383942
     178A      1.385028   179A      1.398145   180A      1.451143
     181A      1.494740   182A      1.503288   183A      1.515649
     184A      1.518410   185A      1.541172   186A      1.574127
     187A      1.574285   188A      1.596381   189A      1.652159
     190A      1.660768   191A      1.671505   192A      1.705286
     193A      1.724477   194A      1.782643   195A      1.799067
     196A      1.807063   197A      1.864950   198A      1.881477
     199A      1.924391   200A      1.964987   201A      2.022005
     202A      2.025429   203A      2.039539   204A      2.072981
     205A      2.100895   206A      2.107054   207A      2.119263
     208A      2.126759   209A      2.131238   210A      2.135965
     211A      2.149364   212A      2.168670   213A      2.178815
     214A      2.185008   215A      2.229634   216A      2.252628
     217A      2.267082   218A      2.275963   219A      2.300924
     220A      2.308572   221A      2.327043   222A      2.332072
     223A      2.376706   224A      2.405590   225A      2.413319
     226A      2.417758   227A      2.455693   228A      2.470755
     229A      2.493875   230A      2.496919   231A      2.514025
     232A      2.525784   233A      2.545345   234A      2.545388
     235A      2.576838   236A      2.585743   237A      2.599833
     238A      2.633765   239A      2.696232   240A      2.734093
     241A      2.747025   242A      2.767089   243A      2.790311
     244A      2.794149   245A      2.803444   246A      2.828847
     247A      2.837641   248A      2.867213   249A      2.895736
     250A      2.933302   251A      2.949447   252A      2.952738
     253A      2.980862   254A      3.043511   255A      3.051201
     256A      3.069910   257A      3.076217   258A      3.131916
     259A      3.159653   260A      3.182971   261A      3.199163
     262A      3.208795   263A      3.213407   264A      3.334816
     265A      3.340897   266A      3.354572   267A      3.354790
     268A      3.362951   269A      3.458713   270A      3.494460
     271A      3.518552   272A      3.569673   273A      3.608933
     274A      3.707300   275A      3.726780   276A      3.768294
     277A      3.778448   278A      3.798267   279A      3.858014
     280A      3.870768   281A      4.003930   282A      4.109022
     283A      4.212819   284A      4.636809   285A      4.638871
     286A      4.696029   287A      4.771868   288A      4.880151
     289A      5.021484   290A      5.254721   291A      5.373250
     292A      5.494878   293A      5.610462   294A      5.716374
     295A      5.883983   296A      6.089800   297A      6.198219
     298A     18.255573   299A     18.590166   300A     19.300534
     301A     25.311952   302A     25.453370

    Final Occupation by Irrep:
              A
    DOCC [    18 ]

  @DF-RHF Final Energy:  -224.84369627803821

   => Energetics <=

    Nuclear Repulsion Energy =            164.0866959094788626
    One-Electron Energy =                -628.9319561311538109
    Two-Electron Energy =                 240.0015639436367394
    Total Energy =                       -224.8436962780382089

Computation Completed


Properties will be evaluated at   0.000000,   0.000000,   0.000000 [a0]

Properties computed using the SCF density matrix

  Nuclear Dipole Moment: [e a0]
     X:  -931.3211      Y:   527.0225      Z:  -689.0966

  Electronic Dipole Moment: [e a0]
     X:   930.5173      Y:  -527.1857      Z:   690.4290

  Dipole Moment: [e a0]
     X:    -0.8038      Y:    -0.1633      Z:     1.3324     Total:     1.5646

  Dipole Moment: [D]
     X:    -2.0431      Y:    -0.4150      Z:     3.3867     Total:     3.9769


*** tstop() called on ds1 at Tue Sep 14 16:16:20 2021
Module time:
	user time   =      16.28 seconds =       0.27 minutes
	system time =       0.35 seconds =       0.01 minutes
	total time  =          4 seconds =       0.07 minutes
Total time:
	user time   =      54.39 seconds =       0.91 minutes
	system time =       1.24 seconds =       0.02 minutes
	total time  =         12 seconds =       0.20 minutes
  Constructing Basis Sets for SAPT...

   => Loading Basis Set <=

    Name: (AUG-CC-PVDZ AUX)
    Role: RIFIT
    Keyword: DF_BASIS_SAPT
    atoms 1-2, 10-11 entry N          line   158 file /theoryfs2/ds/csargent/miniconda3/envs/cle/share/psi4/basis/aug-cc-pvdz-ri.gbs
    atoms 3-6, 12-15 entry H          line    30 file /theoryfs2/ds/csargent/miniconda3/envs/cle/share/psi4/basis/aug-cc-pvdz-ri.gbs
    atoms 7-9, 16-18 entry C          line   112 file /theoryfs2/ds/csargent/miniconda3/envs/cle/share/psi4/basis/aug-cc-pvdz-ri.gbs


  //>>>>>>>>>>>>>>>>>>>>>>>>>>>>>>>>>>>//
  //               SAPT0               //
  //<<<<<<<<<<<<<<<<<<<<<<<<<<<<<<<<<<<//


*** tstart() called on ds1
*** at Tue Sep 14 16:16:20 2021

        SAPT0
    Ed Hohenstein
     6 June 2009

      Orbital Information
  --------------------------
    NSO        =       302
    NMO        =       302
    NRI        =       904
    NOCC A     =        18
    NOCC B     =        18
    FOCC A     =         5
    FOCC B     =         5
    NVIR A     =       284
    NVIR B     =       284

    Elst10,r            =    -0.000042256270 [Eh]
    Exch10              =    -0.000000000000 [Eh]
    Exch10 (S^2)        =    -0.000000000000 [Eh]

    Iter     Energy [mEh]          dE [mEh]         Residual      Time [s]
       1      -0.00003423       0.000034229       0.060127777             0
       2      -0.00003203      -0.000002199       0.016794623             0
       3      -0.00003522       0.000003189       0.007017321             0
       4      -0.00003583       0.000000612       0.002348901             0
       5      -0.00003576      -0.000000073       0.001266926             0
       6      -0.00003568      -0.000000077       0.000386980             1
       7      -0.00003569       0.000000014       0.000133988             1
       8      -0.00003570       0.000000005       0.000044901             1
       9      -0.00003570      -0.000000000       0.000015468             1
      10      -0.00003570      -0.000000001       0.000003402             1
      11      -0.00003570       0.000000000       0.000001397             1
      12      -0.00003570       0.000000000       0.000000443             1

    CHF Iterations converged


    Iter     Energy [mEh]          dE [mEh]         Residual      Time [s]
       1      -0.00003423       0.000034229       0.060127776             0
       2      -0.00003203      -0.000002199       0.016794623             1
       3      -0.00003522       0.000003189       0.007017321             1
       4      -0.00003583       0.000000612       0.002348901             1
       5      -0.00003576      -0.000000073       0.001266926             1
       6      -0.00003568      -0.000000077       0.000386980             1
       7      -0.00003569       0.000000014       0.000133988             1
       8      -0.00003570       0.000000005       0.000044901             1
       9      -0.00003570      -0.000000000       0.000015468             1
      10      -0.00003570      -0.000000001       0.000003402             2
      11      -0.00003570       0.000000000       0.000001397             2
      12      -0.00003570       0.000000000       0.000000443             2

    CHF Iterations converged

    Ind20,r (A<-B)      =    -0.000000035699 [Eh]
    Ind20,r (B<-A)      =    -0.000000035699 [Eh]
    Ind20,r             =    -0.000000071397 [Eh]
    Exch-Ind20,r (A<-B) =     0.000000000000 [Eh]
    Exch-Ind20,r (B<-A) =     0.000000000000 [Eh]
    Exch-Ind20,r        =     0.000000000000 [Eh]
    Disp20              =    -0.000000492163 [Eh]
    Disp20 (SS)         =    -0.000000246081 [Eh]
    Disp20 (OS)         =    -0.000000246081 [Eh]
    Exch-Disp20         =     0.000000000000 [Eh]
    Exch-Disp20 (SS)    =     0.000000000000 [Eh]
    Exch-Disp20 (OS)    =     0.000000000000 [Eh]

    SAPT Results
  --------------------------------------------------------------------------------------------------------
    Electrostatics                 -0.04225627 [mEh]      -0.02651621 [kcal/mol]      -0.11094382 [kJ/mol]
      Elst10,r                     -0.04225627 [mEh]      -0.02651621 [kcal/mol]      -0.11094382 [kJ/mol]

    Exchange                       -0.00000000 [mEh]      -0.00000000 [kcal/mol]      -0.00000000 [kJ/mol]
      Exch10                       -0.00000000 [mEh]      -0.00000000 [kcal/mol]      -0.00000000 [kJ/mol]
      Exch10(S^2)                  -0.00000000 [mEh]      -0.00000000 [kcal/mol]      -0.00000000 [kJ/mol]

    Induction                      -0.00007617 [mEh]      -0.00004780 [kcal/mol]      -0.00019998 [kJ/mol]
      Ind20,r                      -0.00007140 [mEh]      -0.00004480 [kcal/mol]      -0.00018745 [kJ/mol]
      Exch-Ind20,r                  0.00000000 [mEh]       0.00000000 [kcal/mol]       0.00000000 [kJ/mol]
      delta HF,r (2)               -0.00000477 [mEh]      -0.00000299 [kcal/mol]      -0.00001252 [kJ/mol]

    Dispersion                     -0.00049216 [mEh]      -0.00030884 [kcal/mol]      -0.00129217 [kJ/mol]
      Disp20                       -0.00049216 [mEh]      -0.00030884 [kcal/mol]      -0.00129217 [kJ/mol]
      Exch-Disp20                   0.00000000 [mEh]       0.00000000 [kcal/mol]       0.00000000 [kJ/mol]
      Disp20 (SS)                  -0.00024608 [mEh]      -0.00015442 [kcal/mol]      -0.00064609 [kJ/mol]
      Disp20 (OS)                  -0.00024608 [mEh]      -0.00015442 [kcal/mol]      -0.00064609 [kJ/mol]
      Exch-Disp20 (SS)              0.00000000 [mEh]       0.00000000 [kcal/mol]       0.00000000 [kJ/mol]
      Exch-Disp20 (OS)              0.00000000 [mEh]       0.00000000 [kcal/mol]       0.00000000 [kJ/mol]

  Total HF                         -0.04233244 [mEh]      -0.02656400 [kcal/mol]      -0.11114380 [kJ/mol]
  Total SAPT0                      -0.04282460 [mEh]      -0.02687284 [kcal/mol]      -0.11243597 [kJ/mol]

  Special recipe for scaled SAPT0 (see Manual):
    Electrostatics sSAPT0          -0.04225627 [mEh]      -0.02651621 [kcal/mol]      -0.11094382 [kJ/mol]
    Exchange sSAPT0                -0.00000000 [mEh]      -0.00000000 [kcal/mol]      -0.00000000 [kJ/mol]
    Induction sSAPT0               -0.00007617 [mEh]      -0.00004780 [kcal/mol]      -0.00019998 [kJ/mol]
    Dispersion sSAPT0              -0.00049216 [mEh]      -0.00030884 [kcal/mol]      -0.00129217 [kJ/mol]
  Total sSAPT0                     -0.04282460 [mEh]      -0.02687284 [kcal/mol]      -0.11243597 [kJ/mol]
  --------------------------------------------------------------------------------------------------------

*** tstop() called on ds1 at Tue Sep 14 16:16:29 2021
Module time:
	user time   =      45.07 seconds =       0.75 minutes
	system time =       3.95 seconds =       0.07 minutes
	total time  =          9 seconds =       0.15 minutes
Total time:
	user time   =     100.33 seconds =       1.67 minutes
	system time =       5.22 seconds =       0.09 minutes
	total time  =         21 seconds =       0.35 minutes


Warning! sapt0 does not have an associated derived wavefunction.The returned wavefunction is the dimer SCF wavefunction.


    Psi4 stopped on: Tuesday, 14 September 2021 04:16PM
    Psi4 wall time for execution: 0:00:21.37

*** Psi4 exiting successfully. Buy a developer a beer!
