
    -----------------------------------------------------------------------
          Psi4: An Open-Source Ab Initio Electronic Structure Package
                               Psi4 1.4rc3

                         Git: Rev {HEAD} 080dba6


    D. G. A. Smith, L. A. Burns, A. C. Simmonett, R. M. Parrish,
    M. C. Schieber, R. Galvelis, P. Kraus, H. Kruse, R. Di Remigio,
    A. Alenaizan, A. M. James, S. Lehtola, J. P. Misiewicz, M. Scheurer,
    R. A. Shaw, J. B. Schriber, Y. Xie, Z. L. Glick, D. A. Sirianni,
    J. S. O'Brien, J. M. Waldrop, A. Kumar, E. G. Hohenstein,
    B. P. Pritchard, B. R. Brooks, H. F. Schaefer III, A. Yu. Sokolov,
    K. Patkowski, A. E. DePrince III, U. Bozkaya, R. A. King,
    F. A. Evangelista, J. M. Turney, T. D. Crawford, C. D. Sherrill,
    J. Chem. Phys. 152(18) 184108 (2020). https://doi.org/10.1063/5.0006002

                            Additional Code Authors
    E. T. Seidl, C. L. Janssen, E. F. Valeev, M. L. Leininger,
    J. F. Gonthier, R. M. Richard, H. R. McAlexander, M. Saitow, X. Wang,
    P. Verma, and M. H. Lechner

             Previous Authors, Complete List of Code Contributors,
                       and Citations for Specific Modules
    https://github.com/psi4/psi4/blob/master/codemeta.json
    https://github.com/psi4/psi4/graphs/contributors
    http://psicode.org/psi4manual/master/introduction.html#citing-psifour

    -----------------------------------------------------------------------


    Psi4 started on: Tuesday, 14 September 2021 04:42PM

    Process ID: 901
    Host:       ds1
    PSIDATADIR: /theoryfs2/ds/csargent/miniconda3/envs/cle/share/psi4
    Memory:     500.0 MiB
    Threads:    6

  ==> Input File <==

--------------------------------------------------------------------------
# PSI4 file produced by CrystaLattE

# Generated from:               imidazole.xyz
# Psithon input for N-mer:      2mer-0+544
# Number of atoms per monomer:  [9, 9]
# Number of replicas:           2
# COM priority:                 1.253262635094e-05
# Minimum COM separations:      22.782
# Separation priority:          2.114115696727e-05
# Minimum monomer separations:  19.138
# Cutoff priority:              5.845724371516e-07
# Nuclear repulsion energy:     358.25794942568155

memory 7 GB

molecule Dimer_0_544 {
  N           -4.29309621      -3.06837431       5.30516231
  N           -2.15847371      -2.92627296       1.72037448
  H           -0.02545587      -6.35903575       2.22046452
  H           -2.68566968      -6.53260241       6.61445954
  H           -4.74388423      -0.00609006       2.75615968
  H           -1.41045540      -2.24723147       0.00000000
  C           -1.43737991      -5.07504848       2.94065891
  C           -2.76900782      -5.14609916       5.13522880
  C           -3.85955036      -1.77728198       3.21093411
--
  N          -18.17635845      32.45696507      19.58281390
  N          -20.31098095      32.59906642      23.16760174
  H          -22.44399879      29.16630363      22.66751170
  H          -19.78378498      28.99273697      18.27351668
  H          -17.72557043      35.51924932      22.13181654
  H          -21.05899925      33.27810791      24.88797622
  C          -21.03207475      30.45029090      21.94731730
  C          -19.70044684      30.37924022      19.75274741
  C          -18.60990430      33.74805740      21.67704210
units = au
no_com
no_reorient
}

set {
  e_convergence 10
  d_convergence 10
  scf_type df
  mp2_type df
  cc_type df
  freeze_core true
}

energy('sapt0/aug-cc-pvdz')

--------------------------------------------------------------------------

  Memory set to   6.519 GiB by Python driver.

Scratch directory: /scratch/csargent/psi4.31446.79897/

Scratch directory: /scratch/csargent/psi4.31446.79897/

  //>>>>>>>>>>>>>>>>>>>>>>>>>>>>>>>>>>>//
  //              Dimer HF             //
  //<<<<<<<<<<<<<<<<<<<<<<<<<<<<<<<<<<<//


*** tstart() called on ds1
*** at Tue Sep 14 16:42:52 2021

   => Loading Basis Set <=

    Name: AUG-CC-PVDZ
    Role: ORBITAL
    Keyword: BASIS
    atoms 1-2, 10-11 entry N          line   218 file /theoryfs2/ds/csargent/miniconda3/envs/cle/share/psi4/basis/aug-cc-pvdz.gbs
    atoms 3-6, 12-15 entry H          line    40 file /theoryfs2/ds/csargent/miniconda3/envs/cle/share/psi4/basis/aug-cc-pvdz.gbs
    atoms 7-9, 16-18 entry C          line   182 file /theoryfs2/ds/csargent/miniconda3/envs/cle/share/psi4/basis/aug-cc-pvdz.gbs


         ---------------------------------------------------------
                                   SCF
               by Justin Turney, Rob Parrish, Andy Simmonett
                          and Daniel G. A. Smith
                              RHF Reference
                        6 Threads,   6675 MiB Core
         ---------------------------------------------------------

  ==> Geometry <==

    Molecular point group: c1
    Full point group: C1

    Geometry (in Bohr), charge = 0, multiplicity = 1:

       Center              X                  Y                   Z               Mass
    ------------   -----------------  -----------------  -----------------  -----------------
         N           -4.293096210000    -3.068374310000     5.305162310000    14.003074004430
         N           -2.158473710000    -2.926272960000     1.720374480000    14.003074004430
         H           -0.025455870000    -6.359035750000     2.220464520000     1.007825032230
         H           -2.685669680000    -6.532602410000     6.614459540000     1.007825032230
         H           -4.743884230000    -0.006090060000     2.756159680000     1.007825032230
         H           -1.410455400000    -2.247231470000     0.000000000000     1.007825032230
         C           -1.437379910000    -5.075048480000     2.940658910000    12.000000000000
         C           -2.769007820000    -5.146099160000     5.135228800000    12.000000000000
         C           -3.859550360000    -1.777281980000     3.210934110000    12.000000000000
         N          -18.176358450000    32.456965070000    19.582813900000    14.003074004430
         N          -20.310980950000    32.599066420000    23.167601740000    14.003074004430
         H          -22.443998790000    29.166303630000    22.667511700000     1.007825032230
         H          -19.783784980000    28.992736970000    18.273516680000     1.007825032230
         H          -17.725570430000    35.519249320000    22.131816540000     1.007825032230
         H          -21.058999250000    33.278107910000    24.887976220000     1.007825032230
         C          -21.032074750000    30.450290900000    21.947317300000    12.000000000000
         C          -19.700446840000    30.379240220000    19.752747410000    12.000000000000
         C          -18.609904300000    33.748057400000    21.677042100000    12.000000000000

  Running in c1 symmetry.

  Rotational constants: A =      0.02201  B =      0.00047  C =      0.00047 [cm^-1]
  Rotational constants: A =    659.96772  B =     14.23313  C =     13.95376 [MHz]
  Nuclear repulsion =  358.257949448094109

  Charge       = 0
  Multiplicity = 1
  Electrons    = 72
  Nalpha       = 36
  Nbeta        = 36

  ==> Algorithm <==

  SCF Algorithm Type is DF.
  DIIS enabled.
  MOM disabled.
  Fractional occupation disabled.
  Guess Type is SAD.
  Energy threshold   = 1.00e-10
  Density threshold  = 1.00e-10
  Integral threshold = 1.00e-12

  ==> Primary Basis <==

  Basis Set: AUG-CC-PVDZ
    Blend: AUG-CC-PVDZ
    Number of shells: 130
    Number of basis functions: 302
    Number of Cartesian functions: 322
    Spherical Harmonics?: true
    Max angular momentum: 2

   => Loading Basis Set <=

    Name: (AUG-CC-PVDZ AUX)
    Role: JKFIT
    Keyword: DF_BASIS_SCF
    atoms 1-2, 10-11 entry N          line   212 file /theoryfs2/ds/csargent/miniconda3/envs/cle/share/psi4/basis/aug-cc-pvdz-jkfit.gbs
    atoms 3-6, 12-15 entry H          line    70 file /theoryfs2/ds/csargent/miniconda3/envs/cle/share/psi4/basis/aug-cc-pvdz-jkfit.gbs
    atoms 7-9, 16-18 entry C          line   154 file /theoryfs2/ds/csargent/miniconda3/envs/cle/share/psi4/basis/aug-cc-pvdz-jkfit.gbs

  ==> Integral Setup <==

  ==> DiskDFJK: Density-Fitted J/K Matrices <==

    J tasked:                  Yes
    K tasked:                  Yes
    wK tasked:                  No
    OpenMP threads:              6
    Integrals threads:           6
    Memory [MiB]:             5006
    Algorithm:                Core
    Integral Cache:           SAVE
    Schwarz Cutoff:          1E-12
    Fitting Condition:       1E-10

   => Auxiliary Basis Set <=

  Basis Set: (AUG-CC-PVDZ AUX)
    Blend: AUG-CC-PVDZ-JKFIT
    Number of shells: 376
    Number of basis functions: 1116
    Number of Cartesian functions: 1290
    Spherical Harmonics?: true
    Max angular momentum: 3

  Minimum eigenvalue in the overlap matrix is 2.1837062484E-05.
  Reciprocal condition number of the overlap matrix is 1.8394513703E-06.
    Using symmetric orthogonalization.

  ==> Pre-Iterations <==

  SCF Guess: Superposition of Atomic Densities via on-the-fly atomic UHF (no occupation information).

   -------------------------
    Irrep   Nso     Nmo
   -------------------------
     A        302     302
   -------------------------
    Total     302     302
   -------------------------

  ==> Iterations <==

                           Total Energy        Delta E     RMS |[F,P]|

   @DF-RHF iter SAD:  -449.11714338509540   -4.49117e+02   0.00000e+00
   @DF-RHF iter   1:  -449.39614634271982   -2.79003e-01   2.30608e-03 DIIS
   @DF-RHF iter   2:  -449.61065930788737   -2.14513e-01   1.31141e-03 DIIS
   @DF-RHF iter   3:  -449.68338313636264   -7.27238e-02   2.46071e-04 DIIS
   @DF-RHF iter   4:  -449.68675309677627   -3.36996e-03   1.12976e-04 DIIS
   @DF-RHF iter   5:  -449.68735608167236   -6.02985e-04   1.78825e-05 DIIS
   @DF-RHF iter   6:  -449.68739075357706   -3.46719e-05   7.94534e-06 DIIS
   @DF-RHF iter   7:  -449.68739692923538   -6.17566e-06   3.10396e-06 DIIS
   @DF-RHF iter   8:  -449.68739839285536   -1.46362e-06   1.09962e-06 DIIS
   @DF-RHF iter   9:  -449.68739861443231   -2.21577e-07   2.65662e-07 DIIS
   @DF-RHF iter  10:  -449.68739862550251   -1.10702e-08   1.03487e-07 DIIS
   @DF-RHF iter  11:  -449.68739862715051   -1.64800e-09   4.62401e-08 DIIS
   @DF-RHF iter  12:  -449.68739862745383   -3.03316e-10   1.37192e-08 DIIS
   @DF-RHF iter  13:  -449.68739862748072   -2.68869e-11   5.07525e-09 DIIS
   @DF-RHF iter  14:  -449.68739862748384   -3.12639e-12   2.23861e-09 DIIS
   @DF-RHF iter  15:  -449.68739862748419   -3.41061e-13   7.49567e-10 DIIS
   @DF-RHF iter  16:  -449.68739862748447   -2.84217e-13   3.37249e-10 DIIS
   @DF-RHF iter  17:  -449.68739862748430    1.70530e-13   8.11251e-11 DIIS
  Energy and wave function converged.


  ==> Post-Iterations <==

    Orbital Energies [Eh]
    ---------------------

    Doubly Occupied:

       1A    -15.636677     2A    -15.636575     3A    -15.550830
       4A    -15.550718     5A    -11.300528     6A    -11.300415
       7A    -11.262746     8A    -11.262686     9A    -11.245238
      10A    -11.245183    11A     -1.352470    12A     -1.352375
      13A     -1.168705    14A     -1.168606    15A     -1.011694
      16A     -1.011613    17A     -0.823994    18A     -0.823897
      19A     -0.803327    20A     -0.803248    21A     -0.760268
      22A     -0.760173    23A     -0.609696    24A     -0.609608
      25A     -0.603561    26A     -0.603466    27A     -0.601513
      28A     -0.601442    29A     -0.570539    30A     -0.570458
      31A     -0.435097    32A     -0.434988    33A     -0.400070
      34A     -0.399975    35A     -0.320278    36A     -0.320203

    Virtual:

      37A      0.025772    38A      0.025902    39A      0.042009
      40A      0.042080    41A      0.050419    42A      0.050461
      43A      0.062284    44A      0.062340    45A      0.089484
      46A      0.089612    47A      0.101765    48A      0.101922
      49A      0.121219    50A      0.121340    51A      0.126017
      52A      0.126018    53A      0.133886    54A      0.133941
      55A      0.134197    56A      0.134213    57A      0.141365
      58A      0.141413    59A      0.156924    60A      0.156967
      61A      0.159038    62A      0.159295    63A      0.172387
      64A      0.172448    65A      0.178581    66A      0.178687
      67A      0.187595    68A      0.187769    69A      0.211935
      70A      0.212065    71A      0.220687    72A      0.220752
      73A      0.232751    74A      0.232842    75A      0.241818
      76A      0.241888    77A      0.262006    78A      0.262091
      79A      0.268169    80A      0.268290    81A      0.278293
      82A      0.278407    83A      0.302145    84A      0.302244
      85A      0.314797    86A      0.314972    87A      0.338615
      88A      0.338654    89A      0.361911    90A      0.361952
      91A      0.371150    92A      0.371233    93A      0.380201
      94A      0.380288    95A      0.388698    96A      0.388787
      97A      0.397505    98A      0.397578    99A      0.417431
     100A      0.417528   101A      0.429393   102A      0.429484
     103A      0.452459   104A      0.452562   105A      0.466740
     106A      0.466851   107A      0.481627   108A      0.481726
     109A      0.486703   110A      0.486747   111A      0.488559
     112A      0.488631   113A      0.552107   114A      0.552207
     115A      0.556792   116A      0.556865   117A      0.568685
     118A      0.568769   119A      0.576855   120A      0.576984
     121A      0.594653   122A      0.594735   123A      0.599345
     124A      0.599424   125A      0.616486   126A      0.616560
     127A      0.636957   128A      0.637007   129A      0.652905
     130A      0.652992   131A      0.669689   132A      0.669761
     133A      0.671744   134A      0.671819   135A      0.678577
     136A      0.678685   137A      0.684298   138A      0.684338
     139A      0.715101   140A      0.715182   141A      0.726156
     142A      0.726249   143A      0.741640   144A      0.741725
     145A      0.763098   146A      0.763187   147A      0.767800
     148A      0.767889   149A      0.791334   150A      0.791411
     151A      0.793983   152A      0.794120   153A      0.810146
     154A      0.810237   155A      0.860799   156A      0.860882
     157A      0.871831   158A      0.871906   159A      0.886161
     160A      0.886251   161A      0.890252   162A      0.890278
     163A      0.954752   164A      0.954840   165A      0.977355
     166A      0.977461   167A      0.998747   168A      0.998855
     169A      1.011097   170A      1.011195   171A      1.017809
     172A      1.017884   173A      1.031069   174A      1.031174
     175A      1.077743   176A      1.077849   177A      1.084942
     178A      1.085049   179A      1.127390   180A      1.127462
     181A      1.140898   182A      1.140981   183A      1.149963
     184A      1.150055   185A      1.167573   186A      1.167655
     187A      1.217838   188A      1.217937   189A      1.261135
     190A      1.261199   191A      1.302949   192A      1.303015
     193A      1.385419   194A      1.385529   195A      1.398539
     196A      1.398637   197A      1.451537   198A      1.451635
     199A      1.503684   200A      1.503780   201A      1.518810
     202A      1.518898   203A      1.574537   204A      1.574602
     205A      1.574691   206A      1.574760   207A      1.596786
     208A      1.596865   209A      1.652559   210A      1.652645
     211A      1.671918   212A      1.671976   213A      1.705702
     214A      1.705757   215A      1.724856   216A      1.724994
     217A      1.783055   218A      1.783121   219A      1.799479
     220A      1.799543   221A      1.807478   222A      1.807533
     223A      1.865346   224A      1.865442   225A      1.881862
     226A      1.881986   227A      1.924782   228A      1.924889
     229A      1.965384   230A      1.965477   231A      2.022408
     232A      2.022491   233A      2.025830   234A      2.025916
     235A      2.073383   236A      2.073466   237A      2.107458
     238A      2.107538   239A      2.127170   240A      2.127233
     241A      2.136377   242A      2.136438   243A      2.169076
     244A      2.169154   245A      2.179215   246A      2.179304
     247A      2.267480   248A      2.267571   249A      2.276354
     250A      2.276459   251A      2.301310   252A      2.301429
     253A      2.332464   254A      2.332567   255A      2.418171
     256A      2.418231   257A      2.497312   258A      2.497417
     259A      2.514421   260A      2.514517   261A      2.545733
     262A      2.545851   263A      2.586148   264A      2.586225
     265A      2.634167   266A      2.634250   267A      2.734506
     268A      2.734565   269A      2.747417   270A      2.747518
     271A      2.767495   272A      2.767570   273A      2.794546
     274A      2.794638   275A      2.803839   276A      2.803936
     277A      2.838039   278A      2.838133   279A      2.867602
     280A      2.867711   281A      2.953135   282A      2.953229
     283A      2.981253   284A      2.981356   285A      3.051609
     286A      3.051680   287A      3.070313   288A      3.070394
     289A      3.199555   290A      3.199660   291A      3.209194
     292A      3.209283   293A      3.335206   294A      3.335313
     295A      3.354968   296A      3.355061   297A      3.518949
     298A      3.519041   299A      3.768689   300A      3.768785
     301A      4.109430   302A      4.109502

    Final Occupation by Irrep:
              A
    DOCC [    36 ]

  @DF-RHF Final Energy:  -449.68739862748430

   => Energetics <=

    Nuclear Repulsion Energy =            358.2579494480941094
    One-Electron Energy =               -1318.0649735217182297
    Two-Electron Energy =                 510.1196254461398212
    Total Energy =                       -449.6873986274842991

Computation Completed


Properties will be evaluated at   0.000000,   0.000000,   0.000000 [a0]

Properties computed using the SCF density matrix

  Nuclear Dipole Moment: [e a0]
     X:  -808.9004      Y:  1020.7161      Z:   895.9671

  Electronic Dipole Moment: [e a0]
     X:   808.8999      Y: -1020.3895      Z:  -895.9671

  Dipole Moment: [e a0]
     X:    -0.0004      Y:     0.3266      Z:     0.0001     Total:     0.3266

  Dipole Moment: [D]
     X:    -0.0011      Y:     0.8302      Z:     0.0002     Total:     0.8302


*** tstop() called on ds1 at Tue Sep 14 16:42:57 2021
Module time:
	user time   =      22.14 seconds =       0.37 minutes
	system time =       0.54 seconds =       0.01 minutes
	total time  =          5 seconds =       0.08 minutes
Total time:
	user time   =      22.14 seconds =       0.37 minutes
	system time =       0.54 seconds =       0.01 minutes
	total time  =          5 seconds =       0.08 minutes

  //>>>>>>>>>>>>>>>>>>>>>>>>>>>>>>>>>>>//
  //            Monomer A HF           //
  //<<<<<<<<<<<<<<<<<<<<<<<<<<<<<<<<<<<//


*** tstart() called on ds1
*** at Tue Sep 14 16:42:57 2021

   => Loading Basis Set <=

    Name: AUG-CC-PVDZ
    Role: ORBITAL
    Keyword: BASIS
    atoms 1-2, 10-11 entry N          line   218 file /theoryfs2/ds/csargent/miniconda3/envs/cle/share/psi4/basis/aug-cc-pvdz.gbs
    atoms 3-6, 12-15 entry H          line    40 file /theoryfs2/ds/csargent/miniconda3/envs/cle/share/psi4/basis/aug-cc-pvdz.gbs
    atoms 7-9, 16-18 entry C          line   182 file /theoryfs2/ds/csargent/miniconda3/envs/cle/share/psi4/basis/aug-cc-pvdz.gbs


         ---------------------------------------------------------
                                   SCF
               by Justin Turney, Rob Parrish, Andy Simmonett
                          and Daniel G. A. Smith
                              RHF Reference
                        6 Threads,   6675 MiB Core
         ---------------------------------------------------------

  ==> Geometry <==

    Molecular point group: c1
    Full point group: C1

    Geometry (in Bohr), charge = 0, multiplicity = 1:

       Center              X                  Y                   Z               Mass
    ------------   -----------------  -----------------  -----------------  -----------------
         N           -4.293096210000    -3.068374310000     5.305162310000    14.003074004430
         N           -2.158473710000    -2.926272960000     1.720374480000    14.003074004430
         H           -0.025455870000    -6.359035750000     2.220464520000     1.007825032230
         H           -2.685669680000    -6.532602410000     6.614459540000     1.007825032230
         H           -4.743884230000    -0.006090060000     2.756159680000     1.007825032230
         H           -1.410455400000    -2.247231470000     0.000000000000     1.007825032230
         C           -1.437379910000    -5.075048480000     2.940658910000    12.000000000000
         C           -2.769007820000    -5.146099160000     5.135228800000    12.000000000000
         C           -3.859550360000    -1.777281980000     3.210934110000    12.000000000000
      Gh(N)         -18.176358450000    32.456965070000    19.582813900000    14.003074004430
      Gh(N)         -20.310980950000    32.599066420000    23.167601740000    14.003074004430
      Gh(H)         -22.443998790000    29.166303630000    22.667511700000     1.007825032230
      Gh(H)         -19.783784980000    28.992736970000    18.273516680000     1.007825032230
      Gh(H)         -17.725570430000    35.519249320000    22.131816540000     1.007825032230
      Gh(H)         -21.058999250000    33.278107910000    24.887976220000     1.007825032230
      Gh(C)         -21.032074750000    30.450290900000    21.947317300000    12.000000000000
      Gh(C)         -19.700446840000    30.379240220000    19.752747410000    12.000000000000
      Gh(C)         -18.609904300000    33.748057400000    21.677042100000    12.000000000000

  Running in c1 symmetry.

  Rotational constants: A =      0.02201  B =      0.00047  C =      0.00047 [cm^-1]
  Rotational constants: A =    659.96772  B =     14.23313  C =     13.95376 [MHz]
  Nuclear repulsion =  164.086695994184396

  Charge       = 0
  Multiplicity = 1
  Electrons    = 36
  Nalpha       = 18
  Nbeta        = 18

  ==> Algorithm <==

  SCF Algorithm Type is DF.
  DIIS enabled.
  MOM disabled.
  Fractional occupation disabled.
  Guess Type is SAD.
  Energy threshold   = 1.00e-10
  Density threshold  = 1.00e-10
  Integral threshold = 1.00e-12

  ==> Primary Basis <==

  Basis Set: AUG-CC-PVDZ
    Blend: AUG-CC-PVDZ
    Number of shells: 130
    Number of basis functions: 302
    Number of Cartesian functions: 322
    Spherical Harmonics?: true
    Max angular momentum: 2

   => Loading Basis Set <=

    Name: (AUG-CC-PVDZ AUX)
    Role: JKFIT
    Keyword: DF_BASIS_SCF
    atoms 1-2, 10-11 entry N          line   212 file /theoryfs2/ds/csargent/miniconda3/envs/cle/share/psi4/basis/aug-cc-pvdz-jkfit.gbs
    atoms 3-6, 12-15 entry H          line    70 file /theoryfs2/ds/csargent/miniconda3/envs/cle/share/psi4/basis/aug-cc-pvdz-jkfit.gbs
    atoms 7-9, 16-18 entry C          line   154 file /theoryfs2/ds/csargent/miniconda3/envs/cle/share/psi4/basis/aug-cc-pvdz-jkfit.gbs

  ==> Integral Setup <==

  ==> DiskDFJK: Density-Fitted J/K Matrices <==

    J tasked:                  Yes
    K tasked:                  Yes
    wK tasked:                  No
    OpenMP threads:              6
    Integrals threads:           6
    Memory [MiB]:             5006
    Algorithm:                Core
    Integral Cache:           LOAD
    Schwarz Cutoff:          1E-12
    Fitting Condition:       1E-10

   => Auxiliary Basis Set <=

  Basis Set: (AUG-CC-PVDZ AUX)
    Blend: AUG-CC-PVDZ-JKFIT
    Number of shells: 376
    Number of basis functions: 1116
    Number of Cartesian functions: 1290
    Spherical Harmonics?: true
    Max angular momentum: 3

  Minimum eigenvalue in the overlap matrix is 2.1837062484E-05.
  Reciprocal condition number of the overlap matrix is 1.8394513703E-06.
    Using symmetric orthogonalization.

  ==> Pre-Iterations <==

  SCF Guess: Superposition of Atomic Densities via on-the-fly atomic UHF (no occupation information).

   -------------------------
    Irrep   Nso     Nmo
   -------------------------
     A        302     302
   -------------------------
    Total     302     302
   -------------------------

  ==> Iterations <==

                           Total Energy        Delta E     RMS |[F,P]|

   @DF-RHF iter SAD:  -224.55857169600836   -2.24559e+02   0.00000e+00
   @DF-RHF iter   1:  -224.69806464786333   -1.39493e-01   1.63067e-03 DIIS
   @DF-RHF iter   2:  -224.80532026668135   -1.07256e-01   9.27384e-04 DIIS
   @DF-RHF iter   3:  -224.84168817073737   -3.63679e-02   1.74019e-04 DIIS
   @DF-RHF iter   4:  -224.84337342281799   -1.68525e-03   7.98972e-05 DIIS
   @DF-RHF iter   5:  -224.84367500353261   -3.01581e-04   1.26452e-05 DIIS
   @DF-RHF iter   6:  -224.84369234056641   -1.73370e-05   5.61871e-06 DIIS
   @DF-RHF iter   7:  -224.84369542863556   -3.08807e-06   2.19503e-06 DIIS
   @DF-RHF iter   8:  -224.84369616055406   -7.31919e-07   7.77587e-07 DIIS
   @DF-RHF iter   9:  -224.84369627134774   -1.10794e-07   1.87961e-07 DIIS
   @DF-RHF iter  10:  -224.84369627688352   -5.53578e-09   7.33125e-08 DIIS
   @DF-RHF iter  11:  -224.84369627770982   -8.26304e-10   3.26918e-08 DIIS
   @DF-RHF iter  12:  -224.84369627786180   -1.51971e-10   9.70884e-09 DIIS
   @DF-RHF iter  13:  -224.84369627787510   -1.33014e-11   3.58840e-09 DIIS
   @DF-RHF iter  14:  -224.84369627787692   -1.81899e-12   1.58275e-09 DIIS
   @DF-RHF iter  15:  -224.84369627787731   -3.97904e-13   5.27556e-10 DIIS
   @DF-RHF iter  16:  -224.84369627787700    3.12639e-13   2.34517e-10 DIIS
   @DF-RHF iter  17:  -224.84369627787677    2.27374e-13   4.71139e-11 DIIS
  Energy and wave function converged.


  ==> Post-Iterations <==

    Orbital Energies [Eh]
    ---------------------

    Doubly Occupied:

       1A    -15.637071     2A    -15.551216     3A    -11.300916
       4A    -11.263160     5A    -11.245653     6A     -1.352867
       7A     -1.169098     8A     -1.012098     9A     -0.824390
      10A     -0.803731    11A     -0.760666    12A     -0.610096
      13A     -0.603958    14A     -0.601922    15A     -0.570942
      16A     -0.435483    17A     -0.400464    18A     -0.320685

    Virtual:

      19A      0.023078    20A      0.025388    21A      0.040605
      22A      0.041580    23A      0.044115    24A      0.049997
      25A      0.061864    26A      0.068202    27A      0.077039
      28A      0.086697    29A      0.089096    30A      0.098039
      31A      0.101397    32A      0.120831    33A      0.125146
      34A      0.125577    35A      0.125580    36A      0.127343
      37A      0.127778    38A      0.133472    39A      0.133773
      40A      0.134579    41A      0.138648    42A      0.140942
      43A      0.156500    44A      0.157271    45A      0.158699
      46A      0.171988    47A      0.178189    48A      0.187224
      49A      0.192673    50A      0.208266    51A      0.209899
      52A      0.211559    53A      0.213004    54A      0.220268
      55A      0.220782    56A      0.223068    57A      0.232359
      58A      0.233602    59A      0.241408    60A      0.261605
      61A      0.267803    62A      0.272642    63A      0.277911
      64A      0.299866    65A      0.301746    66A      0.306956
      67A      0.314442    68A      0.319762    69A      0.338197
      70A      0.360666    71A      0.361488    72A      0.370745
      73A      0.376055    74A      0.379800    75A      0.388291
      76A      0.393949    77A      0.397097    78A      0.417031
      79A      0.427948    80A      0.429000    81A      0.435752
      82A      0.440902    83A      0.449545    84A      0.452059
      85A      0.452664    86A      0.466350    87A      0.468678
      88A      0.481229    89A      0.481558    90A      0.486283
      91A      0.488151    92A      0.517875    93A      0.521106
      94A      0.536483    95A      0.538772    96A      0.543662
      97A      0.551710    98A      0.556347    99A      0.556382
     100A      0.568280   101A      0.576474   102A      0.579914
     103A      0.588083   104A      0.594249   105A      0.598939
     106A      0.607009   107A      0.612564   108A      0.616080
     109A      0.618861   110A      0.636538   111A      0.640320
     112A      0.652504   113A      0.669282   114A      0.671337
     115A      0.678179   116A      0.678185   117A      0.683874
     118A      0.684318   119A      0.711720   120A      0.714698
     121A      0.725758   122A      0.736660   123A      0.741238
     124A      0.756660   125A      0.762698   126A      0.767400
     127A      0.790929   128A      0.793606   129A      0.798773
     130A      0.809747   131A      0.811029   132A      0.812974
     133A      0.823837   134A      0.837163   135A      0.860171
     136A      0.860398   137A      0.871425   138A      0.885765
     139A      0.887094   140A      0.889823   141A      0.910298
     142A      0.920187   143A      0.927451   144A      0.954351
     145A      0.969276   146A      0.976964   147A      0.992375
     148A      0.998360   149A      1.010706   150A      1.015998
     151A      1.017404   152A      1.030676   153A      1.059572
     154A      1.077353   155A      1.079165   156A      1.084552
     157A      1.104210   158A      1.116578   159A      1.126983
     160A      1.133024   161A      1.140497   162A      1.149565
     163A      1.167170   164A      1.171453   165A      1.174610
     166A      1.198110   167A      1.211134   168A      1.217445
     169A      1.260721   170A      1.278577   171A      1.291193
     172A      1.297543   173A      1.302539   174A      1.313117
     175A      1.318663   176A      1.348130   177A      1.384665
     178A      1.385028   179A      1.398145   180A      1.451143
     181A      1.495474   182A      1.503288   183A      1.516396
     184A      1.518410   185A      1.541912   186A      1.574127
     187A      1.574285   188A      1.596381   189A      1.652159
     190A      1.661510   191A      1.671505   192A      1.705286
     193A      1.724477   194A      1.782643   195A      1.799067
     196A      1.807063   197A      1.864950   198A      1.881477
     199A      1.924391   200A      1.964987   201A      2.022005
     202A      2.025429   203A      2.040292   204A      2.072981
     205A      2.101652   206A      2.107054   207A      2.120024
     208A      2.126759   209A      2.131996   210A      2.135965
     211A      2.150115   212A      2.168670   213A      2.178815
     214A      2.185762   215A      2.230366   216A      2.253387
     217A      2.267082   218A      2.275963   219A      2.300924
     220A      2.309322   221A      2.327802   222A      2.332072
     223A      2.377466   224A      2.406255   225A      2.414050
     226A      2.417758   227A      2.456428   228A      2.471493
     229A      2.494608   230A      2.496919   231A      2.514025
     232A      2.526530   233A      2.545345   234A      2.546151
     235A      2.577577   236A      2.585743   237A      2.600582
     238A      2.633765   239A      2.696946   240A      2.734093
     241A      2.747025   242A      2.767089   243A      2.791066
     244A      2.794149   245A      2.803444   246A      2.829603
     247A      2.837641   248A      2.867213   249A      2.896502
     250A      2.934043   251A      2.950169   252A      2.952738
     253A      2.980862   254A      3.044260   255A      3.051201
     256A      3.069910   257A      3.076960   258A      3.132653
     259A      3.160403   260A      3.183734   261A      3.199163
     262A      3.208795   263A      3.214169   264A      3.334816
     265A      3.341636   266A      3.354572   267A      3.355531
     268A      3.363695   269A      3.459448   270A      3.495232
     271A      3.518552   272A      3.570379   273A      3.609709
     274A      3.708032   275A      3.727518   276A      3.768294
     277A      3.779183   278A      3.798982   279A      3.858756
     280A      3.871517   281A      4.004682   282A      4.109022
     283A      4.213553   284A      4.637561   285A      4.639616
     286A      4.696788   287A      4.772606   288A      4.880885
     289A      5.022232   290A      5.255490   291A      5.374005
     292A      5.495646   293A      5.611205   294A      5.717100
     295A      5.884734   296A      6.090509   297A      6.198970
     298A     18.256325   299A     18.590923   300A     19.301285
     301A     25.312733   302A     25.454079

    Final Occupation by Irrep:
              A
    DOCC [    18 ]

  @DF-RHF Final Energy:  -224.84369627787677

   => Energetics <=

    Nuclear Repulsion Energy =            164.0866959941843959
    One-Electron Energy =                -628.9319562960863550
    Two-Electron Energy =                 240.0015640240251571
    Total Energy =                       -224.8436962778767736

Computation Completed


Properties will be evaluated at   0.000000,   0.000000,   0.000000 [a0]

Properties computed using the SCF density matrix

  Nuclear Dipole Moment: [e a0]
     X:  -102.4221      Y:  -129.0981      Z:   128.4908

  Electronic Dipole Moment: [e a0]
     X:   103.2259      Y:   129.2613      Z:  -129.8232

  Dipole Moment: [e a0]
     X:     0.8038      Y:     0.1633      Z:    -1.3324     Total:     1.5646

  Dipole Moment: [D]
     X:     2.0431      Y:     0.4150      Z:    -3.3867     Total:     3.9769


*** tstop() called on ds1 at Tue Sep 14 16:43:00 2021
Module time:
	user time   =      16.23 seconds =       0.27 minutes
	system time =       0.34 seconds =       0.01 minutes
	total time  =          3 seconds =       0.05 minutes
Total time:
	user time   =      38.49 seconds =       0.64 minutes
	system time =       0.89 seconds =       0.01 minutes
	total time  =          8 seconds =       0.13 minutes

  //>>>>>>>>>>>>>>>>>>>>>>>>>>>>>>>>>>>//
  //            Monomer B HF           //
  //<<<<<<<<<<<<<<<<<<<<<<<<<<<<<<<<<<<//


*** tstart() called on ds1
*** at Tue Sep 14 16:43:00 2021

   => Loading Basis Set <=

    Name: AUG-CC-PVDZ
    Role: ORBITAL
    Keyword: BASIS
    atoms 1-2, 10-11 entry N          line   218 file /theoryfs2/ds/csargent/miniconda3/envs/cle/share/psi4/basis/aug-cc-pvdz.gbs
    atoms 3-6, 12-15 entry H          line    40 file /theoryfs2/ds/csargent/miniconda3/envs/cle/share/psi4/basis/aug-cc-pvdz.gbs
    atoms 7-9, 16-18 entry C          line   182 file /theoryfs2/ds/csargent/miniconda3/envs/cle/share/psi4/basis/aug-cc-pvdz.gbs


         ---------------------------------------------------------
                                   SCF
               by Justin Turney, Rob Parrish, Andy Simmonett
                          and Daniel G. A. Smith
                              RHF Reference
                        6 Threads,   6675 MiB Core
         ---------------------------------------------------------

  ==> Geometry <==

    Molecular point group: c1
    Full point group: C1

    Geometry (in Bohr), charge = 0, multiplicity = 1:

       Center              X                  Y                   Z               Mass
    ------------   -----------------  -----------------  -----------------  -----------------
      Gh(N)          -4.293096210000    -3.068374310000     5.305162310000    14.003074004430
      Gh(N)          -2.158473710000    -2.926272960000     1.720374480000    14.003074004430
      Gh(H)          -0.025455870000    -6.359035750000     2.220464520000     1.007825032230
      Gh(H)          -2.685669680000    -6.532602410000     6.614459540000     1.007825032230
      Gh(H)          -4.743884230000    -0.006090060000     2.756159680000     1.007825032230
      Gh(H)          -1.410455400000    -2.247231470000     0.000000000000     1.007825032230
      Gh(C)          -1.437379910000    -5.075048480000     2.940658910000    12.000000000000
      Gh(C)          -2.769007820000    -5.146099160000     5.135228800000    12.000000000000
      Gh(C)          -3.859550360000    -1.777281980000     3.210934110000    12.000000000000
         N          -18.176358450000    32.456965070000    19.582813900000    14.003074004430
         N          -20.310980950000    32.599066420000    23.167601740000    14.003074004430
         H          -22.443998790000    29.166303630000    22.667511700000     1.007825032230
         H          -19.783784980000    28.992736970000    18.273516680000     1.007825032230
         H          -17.725570430000    35.519249320000    22.131816540000     1.007825032230
         H          -21.058999250000    33.278107910000    24.887976220000     1.007825032230
         C          -21.032074750000    30.450290900000    21.947317300000    12.000000000000
         C          -19.700446840000    30.379240220000    19.752747410000    12.000000000000
         C          -18.609904300000    33.748057400000    21.677042100000    12.000000000000

  Running in c1 symmetry.

  Rotational constants: A =      0.02201  B =      0.00047  C =      0.00047 [cm^-1]
  Rotational constants: A =    659.96772  B =     14.23313  C =     13.95376 [MHz]
  Nuclear repulsion =  164.086695883565369

  Charge       = 0
  Multiplicity = 1
  Electrons    = 36
  Nalpha       = 18
  Nbeta        = 18

  ==> Algorithm <==

  SCF Algorithm Type is DF.
  DIIS enabled.
  MOM disabled.
  Fractional occupation disabled.
  Guess Type is SAD.
  Energy threshold   = 1.00e-10
  Density threshold  = 1.00e-10
  Integral threshold = 1.00e-12

  ==> Primary Basis <==

  Basis Set: AUG-CC-PVDZ
    Blend: AUG-CC-PVDZ
    Number of shells: 130
    Number of basis functions: 302
    Number of Cartesian functions: 322
    Spherical Harmonics?: true
    Max angular momentum: 2

   => Loading Basis Set <=

    Name: (AUG-CC-PVDZ AUX)
    Role: JKFIT
    Keyword: DF_BASIS_SCF
    atoms 1-2, 10-11 entry N          line   212 file /theoryfs2/ds/csargent/miniconda3/envs/cle/share/psi4/basis/aug-cc-pvdz-jkfit.gbs
    atoms 3-6, 12-15 entry H          line    70 file /theoryfs2/ds/csargent/miniconda3/envs/cle/share/psi4/basis/aug-cc-pvdz-jkfit.gbs
    atoms 7-9, 16-18 entry C          line   154 file /theoryfs2/ds/csargent/miniconda3/envs/cle/share/psi4/basis/aug-cc-pvdz-jkfit.gbs

  ==> Integral Setup <==

  ==> DiskDFJK: Density-Fitted J/K Matrices <==

    J tasked:                  Yes
    K tasked:                  Yes
    wK tasked:                  No
    OpenMP threads:              6
    Integrals threads:           6
    Memory [MiB]:             5006
    Algorithm:                Core
    Integral Cache:           LOAD
    Schwarz Cutoff:          1E-12
    Fitting Condition:       1E-10

   => Auxiliary Basis Set <=

  Basis Set: (AUG-CC-PVDZ AUX)
    Blend: AUG-CC-PVDZ-JKFIT
    Number of shells: 376
    Number of basis functions: 1116
    Number of Cartesian functions: 1290
    Spherical Harmonics?: true
    Max angular momentum: 3

  Minimum eigenvalue in the overlap matrix is 2.1837062484E-05.
  Reciprocal condition number of the overlap matrix is 1.8394513703E-06.
    Using symmetric orthogonalization.

  ==> Pre-Iterations <==

  SCF Guess: Superposition of Atomic Densities via on-the-fly atomic UHF (no occupation information).

   -------------------------
    Irrep   Nso     Nmo
   -------------------------
     A        302     302
   -------------------------
    Total     302     302
   -------------------------

  ==> Iterations <==

                           Total Energy        Delta E     RMS |[F,P]|

   @DF-RHF iter SAD:  -224.55857168577293   -2.24559e+02   0.00000e+00
   @DF-RHF iter   1:  -224.69806464836594   -1.39493e-01   1.63067e-03 DIIS
   @DF-RHF iter   2:  -224.80532026672395   -1.07256e-01   9.27384e-04 DIIS
   @DF-RHF iter   3:  -224.84168817065421   -3.63679e-02   1.74019e-04 DIIS
   @DF-RHF iter   4:  -224.84337342274375   -1.68525e-03   7.98972e-05 DIIS
   @DF-RHF iter   5:  -224.84367500346048   -3.01581e-04   1.26452e-05 DIIS
   @DF-RHF iter   6:  -224.84369234049444   -1.73370e-05   5.61871e-06 DIIS
   @DF-RHF iter   7:  -224.84369542856427   -3.08807e-06   2.19503e-06 DIIS
   @DF-RHF iter   8:  -224.84369616048204   -7.31918e-07   7.77587e-07 DIIS
   @DF-RHF iter   9:  -224.84369627127640   -1.10794e-07   1.87961e-07 DIIS
   @DF-RHF iter  10:  -224.84369627681218   -5.53578e-09   7.33125e-08 DIIS
   @DF-RHF iter  11:  -224.84369627763823   -8.26049e-10   3.26918e-08 DIIS
   @DF-RHF iter  12:  -224.84369627779029   -1.52056e-10   9.70884e-09 DIIS
   @DF-RHF iter  13:  -224.84369627780367   -1.33866e-11   3.58840e-09 DIIS
   @DF-RHF iter  14:  -224.84369627780529   -1.62004e-12   1.58275e-09 DIIS
   @DF-RHF iter  15:  -224.84369627780509    1.98952e-13   5.27556e-10 DIIS
   @DF-RHF iter  16:  -224.84369627780563   -5.40012e-13   2.34517e-10 DIIS
   @DF-RHF iter  17:  -224.84369627780572   -8.52651e-14   4.71140e-11 DIIS
  Energy and wave function converged.


  ==> Post-Iterations <==

    Orbital Energies [Eh]
    ---------------------

    Doubly Occupied:

       1A    -15.637071     2A    -15.551216     3A    -11.300916
       4A    -11.263160     5A    -11.245653     6A     -1.352867
       7A     -1.169098     8A     -1.012098     9A     -0.824390
      10A     -0.803731    11A     -0.760666    12A     -0.610096
      13A     -0.603958    14A     -0.601922    15A     -0.570942
      16A     -0.435483    17A     -0.400464    18A     -0.320685

    Virtual:

      19A      0.023154    20A      0.025388    21A      0.040739
      22A      0.041580    23A      0.044120    24A      0.049997
      25A      0.061864    26A      0.068303    27A      0.077136
      28A      0.086813    29A      0.089096    30A      0.098151
      31A      0.101397    32A      0.120831    33A      0.125200
      34A      0.125577    35A      0.125592    36A      0.127379
      37A      0.127862    38A      0.133472    39A      0.133773
      40A      0.134773    41A      0.138678    42A      0.140942
      43A      0.156500    44A      0.157230    45A      0.158699
      46A      0.171988    47A      0.178189    48A      0.187224
      49A      0.192793    50A      0.208378    51A      0.209976
      52A      0.211559    53A      0.213127    54A      0.220268
      55A      0.220910    56A      0.223163    57A      0.232359
      58A      0.233682    59A      0.241408    60A      0.261605
      61A      0.267803    62A      0.272758    63A      0.277911
      64A      0.300007    65A      0.301746    66A      0.307042
      67A      0.314442    68A      0.319841    69A      0.338197
      70A      0.360823    71A      0.361488    72A      0.370745
      73A      0.376051    74A      0.379800    75A      0.388291
      76A      0.394057    77A      0.397097    78A      0.417031
      79A      0.427952    80A      0.429000    81A      0.435759
      82A      0.440983    83A      0.449650    84A      0.452059
      85A      0.452760    86A      0.466350    87A      0.468740
      88A      0.481229    89A      0.481662    90A      0.486283
      91A      0.488151    92A      0.517953    93A      0.521187
      94A      0.536626    95A      0.538868    96A      0.543726
      97A      0.551710    98A      0.556382    99A      0.556477
     100A      0.568280   101A      0.576474   102A      0.580006
     103A      0.588190   104A      0.594249   105A      0.598939
     106A      0.607030   107A      0.612721   108A      0.616080
     109A      0.618967   110A      0.636538   111A      0.640360
     112A      0.652504   113A      0.669282   114A      0.671337
     115A      0.678185   116A      0.678264   117A      0.683874
     118A      0.684379   119A      0.711819   120A      0.714698
     121A      0.725758   122A      0.736698   123A      0.741238
     124A      0.756773   125A      0.762698   126A      0.767400
     127A      0.790929   128A      0.793606   129A      0.798860
     130A      0.809747   131A      0.811105   132A      0.813149
     133A      0.823852   134A      0.837205   135A      0.860219
     136A      0.860398   137A      0.871425   138A      0.885765
     139A      0.887188   140A      0.889823   141A      0.910377
     142A      0.920278   143A      0.927533   144A      0.954351
     145A      0.969369   146A      0.976964   147A      0.992472
     148A      0.998360   149A      1.010706   150A      1.016081
     151A      1.017404   152A      1.030676   153A      1.059616
     154A      1.077353   155A      1.079264   156A      1.084552
     157A      1.104303   158A      1.116639   159A      1.126983
     160A      1.133122   161A      1.140497   162A      1.149565
     163A      1.167170   164A      1.171519   165A      1.174728
     166A      1.198221   167A      1.211240   168A      1.217445
     169A      1.260721   170A      1.278696   171A      1.291314
     172A      1.297646   173A      1.302539   174A      1.313219
     175A      1.318769   176A      1.348238   177A      1.384762
     178A      1.385028   179A      1.398145   180A      1.451143
     181A      1.495589   182A      1.503288   183A      1.516512
     184A      1.518410   185A      1.542005   186A      1.574127
     187A      1.574285   188A      1.596381   189A      1.652159
     190A      1.661600   191A      1.671505   192A      1.705286
     193A      1.724477   194A      1.782643   195A      1.799067
     196A      1.807063   197A      1.864950   198A      1.881477
     199A      1.924391   200A      1.964987   201A      2.022005
     202A      2.025429   203A      2.040330   204A      2.072981
     205A      2.101765   206A      2.107054   207A      2.120167
     208A      2.126759   209A      2.132057   210A      2.135965
     211A      2.150172   212A      2.168670   213A      2.178815
     214A      2.185734   215A      2.230433   216A      2.253443
     217A      2.267082   218A      2.275963   219A      2.300924
     220A      2.309357   221A      2.327912   222A      2.332072
     223A      2.377617   224A      2.406369   225A      2.414072
     226A      2.417758   227A      2.456462   228A      2.471589
     229A      2.494669   230A      2.496919   231A      2.514025
     232A      2.526660   233A      2.545345   234A      2.546235
     235A      2.577614   236A      2.585743   237A      2.600629
     238A      2.633765   239A      2.696993   240A      2.734093
     241A      2.747025   242A      2.767089   243A      2.791225
     244A      2.794149   245A      2.803444   246A      2.829621
     247A      2.837641   248A      2.867213   249A      2.896654
     250A      2.934057   251A      2.950223   252A      2.952738
     253A      2.980862   254A      3.044392   255A      3.051201
     256A      3.069910   257A      3.077049   258A      3.132805
     259A      3.160524   260A      3.183815   261A      3.199163
     262A      3.208795   263A      3.214247   264A      3.334816
     265A      3.341713   266A      3.354572   267A      3.355640
     268A      3.363745   269A      3.459562   270A      3.495360
     271A      3.518552   272A      3.570485   273A      3.609817
     274A      3.708136   275A      3.727609   276A      3.768294
     277A      3.779275   278A      3.799095   279A      3.858819
     280A      3.871637   281A      4.004786   282A      4.109022
     283A      4.213680   284A      4.637631   285A      4.639711
     286A      4.696861   287A      4.772722   288A      4.880988
     289A      5.022321   290A      5.255607   291A      5.374097
     292A      5.495745   293A      5.611261   294A      5.717194
     295A      5.884853   296A      6.090614   297A      6.199092
     298A     18.256341   299A     18.591106   300A     19.301300
     301A     25.312862   302A     25.454193

    Final Occupation by Irrep:
              A
    DOCC [    18 ]

  @DF-RHF Final Energy:  -224.84369627780572

   => Energetics <=

    Nuclear Repulsion Energy =            164.0866958835653691
    One-Electron Energy =                -628.9319560779277936
    Two-Electron Energy =                 240.0015639165567052
    Total Energy =                       -224.8436962778057193

Computation Completed


Properties will be evaluated at   0.000000,   0.000000,   0.000000 [a0]

Properties computed using the SCF density matrix

  Nuclear Dipole Moment: [e a0]
     X:  -706.4783      Y:  1149.8141      Z:   767.4764

  Electronic Dipole Moment: [e a0]
     X:   705.6745      Y: -1149.6509      Z:  -766.1439

  Dipole Moment: [e a0]
     X:    -0.8038      Y:     0.1633      Z:     1.3324     Total:     1.5646

  Dipole Moment: [D]
     X:    -2.0431      Y:     0.4150      Z:     3.3867     Total:     3.9769


*** tstop() called on ds1 at Tue Sep 14 16:43:04 2021
Module time:
	user time   =      16.32 seconds =       0.27 minutes
	system time =       0.36 seconds =       0.01 minutes
	total time  =          4 seconds =       0.07 minutes
Total time:
	user time   =      54.97 seconds =       0.92 minutes
	system time =       1.25 seconds =       0.02 minutes
	total time  =         12 seconds =       0.20 minutes
  Constructing Basis Sets for SAPT...

   => Loading Basis Set <=

    Name: (AUG-CC-PVDZ AUX)
    Role: RIFIT
    Keyword: DF_BASIS_SAPT
    atoms 1-2, 10-11 entry N          line   158 file /theoryfs2/ds/csargent/miniconda3/envs/cle/share/psi4/basis/aug-cc-pvdz-ri.gbs
    atoms 3-6, 12-15 entry H          line    30 file /theoryfs2/ds/csargent/miniconda3/envs/cle/share/psi4/basis/aug-cc-pvdz-ri.gbs
    atoms 7-9, 16-18 entry C          line   112 file /theoryfs2/ds/csargent/miniconda3/envs/cle/share/psi4/basis/aug-cc-pvdz-ri.gbs


  //>>>>>>>>>>>>>>>>>>>>>>>>>>>>>>>>>>>//
  //               SAPT0               //
  //<<<<<<<<<<<<<<<<<<<<<<<<<<<<<<<<<<<//


*** tstart() called on ds1
*** at Tue Sep 14 16:43:04 2021

        SAPT0
    Ed Hohenstein
     6 June 2009

      Orbital Information
  --------------------------
    NSO        =       302
    NMO        =       302
    NRI        =       904
    NOCC A     =        18
    NOCC B     =        18
    FOCC A     =         5
    FOCC B     =         5
    NVIR A     =       284
    NVIR B     =       284

    Elst10,r            =    -0.000006043938 [Eh]
    Exch10              =     0.000000000000 [Eh]
    Exch10 (S^2)        =     0.000000000000 [Eh]

    Iter     Energy [mEh]          dE [mEh]         Residual      Time [s]
       1      -0.00001649       0.000016489       0.038828130             0
       2      -0.00001573      -0.000000761       0.010732623             0
       3      -0.00001746       0.000001733       0.003725982             0
       4      -0.00001761       0.000000145       0.001540344             0
       5      -0.00001755      -0.000000058       0.000908596             0
       6      -0.00001752      -0.000000026       0.000255486             1
       7      -0.00001753       0.000000008       0.000064626             1
       8      -0.00001753       0.000000001       0.000022918             1
       9      -0.00001753      -0.000000000       0.000008801             1
      10      -0.00001753      -0.000000000       0.000002401             1
      11      -0.00001753       0.000000000       0.000000950             1

    CHF Iterations converged


    Iter     Energy [mEh]          dE [mEh]         Residual      Time [s]
       1      -0.00001615       0.000016154       0.037282160             0
       2      -0.00001529      -0.000000867       0.010347547             0
       3      -0.00001674       0.000001449       0.003910703             1
       4      -0.00001696       0.000000220       0.001170246             1
       5      -0.00001691      -0.000000042       0.000709103             1
       6      -0.00001689      -0.000000025       0.000234681             1
       7      -0.00001690       0.000000007       0.000069098             1
       8      -0.00001690       0.000000001       0.000015130             1
       9      -0.00001690      -0.000000001       0.000005097             1
      10      -0.00001690      -0.000000000       0.000001819             1
      11      -0.00001690       0.000000000       0.000000540             2

    CHF Iterations converged

    Ind20,r (A<-B)      =    -0.000000017531 [Eh]
    Ind20,r (B<-A)      =    -0.000000016897 [Eh]
    Ind20,r             =    -0.000000034429 [Eh]
    Exch-Ind20,r (A<-B) =     0.000000000000 [Eh]
    Exch-Ind20,r (B<-A) =     0.000000000000 [Eh]
    Exch-Ind20,r        =     0.000000000000 [Eh]
    Disp20              =    -0.000000210889 [Eh]
    Disp20 (SS)         =    -0.000000105444 [Eh]
    Disp20 (OS)         =    -0.000000105444 [Eh]
    Exch-Disp20         =     0.000000000000 [Eh]
    Exch-Disp20 (SS)    =     0.000000000000 [Eh]
    Exch-Disp20 (OS)    =     0.000000000000 [Eh]

    SAPT Results
  --------------------------------------------------------------------------------------------------------
    Electrostatics                 -0.00604394 [mEh]      -0.00379263 [kcal/mol]      -0.01586836 [kJ/mol]
      Elst10,r                     -0.00604394 [mEh]      -0.00379263 [kcal/mol]      -0.01586836 [kJ/mol]

    Exchange                        0.00000000 [mEh]       0.00000000 [kcal/mol]       0.00000000 [kJ/mol]
      Exch10                        0.00000000 [mEh]       0.00000000 [kcal/mol]       0.00000000 [kJ/mol]
      Exch10(S^2)                   0.00000000 [mEh]       0.00000000 [kcal/mol]       0.00000000 [kJ/mol]

    Induction                      -0.00002786 [mEh]      -0.00001749 [kcal/mol]      -0.00007316 [kJ/mol]
      Ind20,r                      -0.00003443 [mEh]      -0.00002160 [kcal/mol]      -0.00009039 [kJ/mol]
      Exch-Ind20,r                  0.00000000 [mEh]       0.00000000 [kcal/mol]       0.00000000 [kJ/mol]
      delta HF,r (2)                0.00000656 [mEh]       0.00000412 [kcal/mol]       0.00001723 [kJ/mol]

    Dispersion                     -0.00021089 [mEh]      -0.00013233 [kcal/mol]      -0.00055369 [kJ/mol]
      Disp20                       -0.00021089 [mEh]      -0.00013233 [kcal/mol]      -0.00055369 [kJ/mol]
      Exch-Disp20                   0.00000000 [mEh]       0.00000000 [kcal/mol]       0.00000000 [kJ/mol]
      Disp20 (SS)                  -0.00010544 [mEh]      -0.00006617 [kcal/mol]      -0.00027684 [kJ/mol]
      Disp20 (OS)                  -0.00010544 [mEh]      -0.00006617 [kcal/mol]      -0.00027684 [kJ/mol]
      Exch-Disp20 (SS)              0.00000000 [mEh]       0.00000000 [kcal/mol]       0.00000000 [kJ/mol]
      Exch-Disp20 (OS)              0.00000000 [mEh]       0.00000000 [kcal/mol]       0.00000000 [kJ/mol]

  Total HF                         -0.00607180 [mEh]      -0.00381011 [kcal/mol]      -0.01594151 [kJ/mol]
  Total SAPT0                      -0.00628269 [mEh]      -0.00394245 [kcal/mol]      -0.01649520 [kJ/mol]

  Special recipe for scaled SAPT0 (see Manual):
    Electrostatics sSAPT0          -0.00604394 [mEh]      -0.00379263 [kcal/mol]      -0.01586836 [kJ/mol]
    Exchange sSAPT0                 0.00000000 [mEh]       0.00000000 [kcal/mol]       0.00000000 [kJ/mol]
    Induction sSAPT0               -0.00002786 [mEh]      -0.00001749 [kcal/mol]      -0.00007316 [kJ/mol]
    Dispersion sSAPT0              -0.00021089 [mEh]      -0.00013233 [kcal/mol]      -0.00055369 [kJ/mol]
  Total sSAPT0                     -0.00628269 [mEh]      -0.00394245 [kcal/mol]      -0.01649520 [kJ/mol]
  --------------------------------------------------------------------------------------------------------

*** tstop() called on ds1 at Tue Sep 14 16:43:13 2021
Module time:
	user time   =      43.38 seconds =       0.72 minutes
	system time =       3.76 seconds =       0.06 minutes
	total time  =          9 seconds =       0.15 minutes
Total time:
	user time   =      99.00 seconds =       1.65 minutes
	system time =       5.03 seconds =       0.08 minutes
	total time  =         21 seconds =       0.35 minutes


Warning! sapt0 does not have an associated derived wavefunction.The returned wavefunction is the dimer SCF wavefunction.


    Psi4 stopped on: Tuesday, 14 September 2021 04:43PM
    Psi4 wall time for execution: 0:00:21.32

*** Psi4 exiting successfully. Buy a developer a beer!
