
    -----------------------------------------------------------------------
          Psi4: An Open-Source Ab Initio Electronic Structure Package
                               Psi4 1.4rc3

                         Git: Rev {HEAD} 080dba6


    D. G. A. Smith, L. A. Burns, A. C. Simmonett, R. M. Parrish,
    M. C. Schieber, R. Galvelis, P. Kraus, H. Kruse, R. Di Remigio,
    A. Alenaizan, A. M. James, S. Lehtola, J. P. Misiewicz, M. Scheurer,
    R. A. Shaw, J. B. Schriber, Y. Xie, Z. L. Glick, D. A. Sirianni,
    J. S. O'Brien, J. M. Waldrop, A. Kumar, E. G. Hohenstein,
    B. P. Pritchard, B. R. Brooks, H. F. Schaefer III, A. Yu. Sokolov,
    K. Patkowski, A. E. DePrince III, U. Bozkaya, R. A. King,
    F. A. Evangelista, J. M. Turney, T. D. Crawford, C. D. Sherrill,
    J. Chem. Phys. 152(18) 184108 (2020). https://doi.org/10.1063/5.0006002

                            Additional Code Authors
    E. T. Seidl, C. L. Janssen, E. F. Valeev, M. L. Leininger,
    J. F. Gonthier, R. M. Richard, H. R. McAlexander, M. Saitow, X. Wang,
    P. Verma, and M. H. Lechner

             Previous Authors, Complete List of Code Contributors,
                       and Citations for Specific Modules
    https://github.com/psi4/psi4/blob/master/codemeta.json
    https://github.com/psi4/psi4/graphs/contributors
    http://psicode.org/psi4manual/master/introduction.html#citing-psifour

    -----------------------------------------------------------------------


    Psi4 started on: Tuesday, 14 September 2021 04:24PM

    Process ID: 32298
    Host:       ds1
    PSIDATADIR: /theoryfs2/ds/csargent/miniconda3/envs/cle/share/psi4
    Memory:     500.0 MiB
    Threads:    6

  ==> Input File <==

--------------------------------------------------------------------------
# PSI4 file produced by CrystaLattE

# Generated from:               imidazole.xyz
# Psithon input for N-mer:      2mer-0+321
# Number of atoms per monomer:  [9, 9]
# Number of replicas:           1
# COM priority:                 1.681768084216e-05
# Minimum COM separations:      20.654
# Separation priority:          2.990964584660e-05
# Minimum monomer separations:  17.048
# Cutoff priority:              9.284282805865e-07
# Nuclear repulsion energy:     361.4663423485839

memory 7 GB

molecule Dimer_0_321 {
  N           -4.29309621      -3.06837431       5.30516231
  N           -2.15847371      -2.92627296       1.72037448
  H           -0.02545587      -6.35903575       2.22046452
  H           -2.68566968      -6.53260241       6.61445954
  H           -4.74388423      -0.00609006       2.75615968
  H           -1.41045540      -2.24723147       0.00000000
  C           -1.43737991      -5.07504848       2.94065891
  C           -2.76900782      -5.14609916       5.13522880
  C           -3.85955036      -1.77728198       3.21093411
--
  N           -1.12933827      -6.17836402     -37.06168912
  N           -3.26396077      -6.32046538     -33.47690129
  H           -5.39697861      -2.88770259     -33.97699133
  H           -2.73676480      -2.71413593     -38.37098635
  H           -0.67855025      -9.24064828     -34.51268649
  H           -4.01197907      -6.99950687     -31.75652681
  C           -3.98505457      -4.17168985     -34.69718572
  C           -2.65342666      -4.10063917     -36.89175561
  C           -1.56288412      -7.46945636     -34.96746092
units = au
no_com
no_reorient
}

set {
  e_convergence 10
  d_convergence 10
  scf_type df
  mp2_type df
  cc_type df
  freeze_core true
}

energy('sapt0/aug-cc-pvdz')

--------------------------------------------------------------------------

  Memory set to   6.519 GiB by Python driver.

Scratch directory: /scratch/csargent/psi4.31446.79897/

Scratch directory: /scratch/csargent/psi4.31446.79897/

  //>>>>>>>>>>>>>>>>>>>>>>>>>>>>>>>>>>>//
  //              Dimer HF             //
  //<<<<<<<<<<<<<<<<<<<<<<<<<<<<<<<<<<<//


*** tstart() called on ds1
*** at Tue Sep 14 16:24:51 2021

   => Loading Basis Set <=

    Name: AUG-CC-PVDZ
    Role: ORBITAL
    Keyword: BASIS
    atoms 1-2, 10-11 entry N          line   218 file /theoryfs2/ds/csargent/miniconda3/envs/cle/share/psi4/basis/aug-cc-pvdz.gbs
    atoms 3-6, 12-15 entry H          line    40 file /theoryfs2/ds/csargent/miniconda3/envs/cle/share/psi4/basis/aug-cc-pvdz.gbs
    atoms 7-9, 16-18 entry C          line   182 file /theoryfs2/ds/csargent/miniconda3/envs/cle/share/psi4/basis/aug-cc-pvdz.gbs


         ---------------------------------------------------------
                                   SCF
               by Justin Turney, Rob Parrish, Andy Simmonett
                          and Daniel G. A. Smith
                              RHF Reference
                        6 Threads,   6675 MiB Core
         ---------------------------------------------------------

  ==> Geometry <==

    Molecular point group: c1
    Full point group: C1

    Geometry (in Bohr), charge = 0, multiplicity = 1:

       Center              X                  Y                   Z               Mass
    ------------   -----------------  -----------------  -----------------  -----------------
         N           -4.293096210000    -3.068374310000     5.305162310000    14.003074004430
         N           -2.158473710000    -2.926272960000     1.720374480000    14.003074004430
         H           -0.025455870000    -6.359035750000     2.220464520000     1.007825032230
         H           -2.685669680000    -6.532602410000     6.614459540000     1.007825032230
         H           -4.743884230000    -0.006090060000     2.756159680000     1.007825032230
         H           -1.410455400000    -2.247231470000     0.000000000000     1.007825032230
         C           -1.437379910000    -5.075048480000     2.940658910000    12.000000000000
         C           -2.769007820000    -5.146099160000     5.135228800000    12.000000000000
         C           -3.859550360000    -1.777281980000     3.210934110000    12.000000000000
         N           -1.129338270000    -6.178364020000   -37.061689120000    14.003074004430
         N           -3.263960770000    -6.320465380000   -33.476901290000    14.003074004430
         H           -5.396978610000    -2.887702590000   -33.976991330000     1.007825032230
         H           -2.736764800000    -2.714135930000   -38.370986350000     1.007825032230
         H           -0.678550250000    -9.240648280000   -34.512686490000     1.007825032230
         H           -4.011979070000    -6.999506870000   -31.756526810000     1.007825032230
         C           -3.985054570000    -4.171689850000   -34.697185720000    12.000000000000
         C           -2.653426660000    -4.100639170000   -36.891755610000    12.000000000000
         C           -1.562884120000    -7.469456360000   -34.967460920000    12.000000000000

  Running in c1 symmetry.

  Rotational constants: A =      0.02651  B =      0.00068  C =      0.00067 [cm^-1]
  Rotational constants: A =    794.88666  B =     20.31396  C =     19.95100 [MHz]
  Nuclear repulsion =  361.466342375838622

  Charge       = 0
  Multiplicity = 1
  Electrons    = 72
  Nalpha       = 36
  Nbeta        = 36

  ==> Algorithm <==

  SCF Algorithm Type is DF.
  DIIS enabled.
  MOM disabled.
  Fractional occupation disabled.
  Guess Type is SAD.
  Energy threshold   = 1.00e-10
  Density threshold  = 1.00e-10
  Integral threshold = 1.00e-12

  ==> Primary Basis <==

  Basis Set: AUG-CC-PVDZ
    Blend: AUG-CC-PVDZ
    Number of shells: 130
    Number of basis functions: 302
    Number of Cartesian functions: 322
    Spherical Harmonics?: true
    Max angular momentum: 2

   => Loading Basis Set <=

    Name: (AUG-CC-PVDZ AUX)
    Role: JKFIT
    Keyword: DF_BASIS_SCF
    atoms 1-2, 10-11 entry N          line   212 file /theoryfs2/ds/csargent/miniconda3/envs/cle/share/psi4/basis/aug-cc-pvdz-jkfit.gbs
    atoms 3-6, 12-15 entry H          line    70 file /theoryfs2/ds/csargent/miniconda3/envs/cle/share/psi4/basis/aug-cc-pvdz-jkfit.gbs
    atoms 7-9, 16-18 entry C          line   154 file /theoryfs2/ds/csargent/miniconda3/envs/cle/share/psi4/basis/aug-cc-pvdz-jkfit.gbs

  ==> Integral Setup <==

  ==> DiskDFJK: Density-Fitted J/K Matrices <==

    J tasked:                  Yes
    K tasked:                  Yes
    wK tasked:                  No
    OpenMP threads:              6
    Integrals threads:           6
    Memory [MiB]:             5006
    Algorithm:                Core
    Integral Cache:           SAVE
    Schwarz Cutoff:          1E-12
    Fitting Condition:       1E-10

   => Auxiliary Basis Set <=

  Basis Set: (AUG-CC-PVDZ AUX)
    Blend: AUG-CC-PVDZ-JKFIT
    Number of shells: 376
    Number of basis functions: 1116
    Number of Cartesian functions: 1290
    Spherical Harmonics?: true
    Max angular momentum: 3

  Minimum eigenvalue in the overlap matrix is 2.1837060003E-05.
  Reciprocal condition number of the overlap matrix is 1.8394511598E-06.
    Using symmetric orthogonalization.

  ==> Pre-Iterations <==

  SCF Guess: Superposition of Atomic Densities via on-the-fly atomic UHF (no occupation information).

   -------------------------
    Irrep   Nso     Nmo
   -------------------------
     A        302     302
   -------------------------
    Total     302     302
   -------------------------

  ==> Iterations <==

                           Total Energy        Delta E     RMS |[F,P]|

   @DF-RHF iter SAD:  -449.11714338721549   -4.49117e+02   0.00000e+00
   @DF-RHF iter   1:  -449.39599185772664   -2.78848e-01   2.30646e-03 DIIS
   @DF-RHF iter   2:  -449.61051283474364   -2.14521e-01   1.31218e-03 DIIS
   @DF-RHF iter   3:  -449.68332705653091   -7.28142e-02   2.46322e-04 DIIS
   @DF-RHF iter   4:  -449.68670133993612   -3.37428e-03   1.13135e-04 DIIS
   @DF-RHF iter   5:  -449.68730604368608   -6.04704e-04   1.78855e-05 DIIS
   @DF-RHF iter   6:  -449.68734073470409   -3.46910e-05   7.94913e-06 DIIS
   @DF-RHF iter   7:  -449.68734691378393   -6.17908e-06   3.10530e-06 DIIS
   @DF-RHF iter   8:  -449.68734837774565   -1.46396e-06   1.09973e-06 DIIS
   @DF-RHF iter   9:  -449.68734859934534   -2.21600e-07   2.65679e-07 DIIS
   @DF-RHF iter  10:  -449.68734861042100   -1.10757e-08   1.03463e-07 DIIS
   @DF-RHF iter  11:  -449.68734861206917   -1.64817e-09   4.62499e-08 DIIS
   @DF-RHF iter  12:  -449.68734861237306   -3.03885e-10   1.37190e-08 DIIS
   @DF-RHF iter  13:  -449.68734861239921   -2.61480e-11   5.07545e-09 DIIS
   @DF-RHF iter  14:  -449.68734861240233   -3.12639e-12   2.23832e-09 DIIS
   @DF-RHF iter  15:  -449.68734861240307   -7.38964e-13   7.46161e-10 DIIS
   @DF-RHF iter  16:  -449.68734861240324   -1.70530e-13   3.31976e-10 DIIS
   @DF-RHF iter  17:  -449.68734861240324    0.00000e+00   6.67394e-11 DIIS
  Energy and wave function converged.


  ==> Post-Iterations <==

    Orbital Energies [Eh]
    ---------------------

    Doubly Occupied:

       1A    -15.637972     2A    -15.637972     3A    -15.552081
       4A    -15.552081     5A    -11.301793     6A    -11.301793
       7A    -11.264034     8A    -11.264034     9A    -11.246518
      10A    -11.246518    11A     -1.353752    12A     -1.353752
      13A     -1.169978    14A     -1.169978    15A     -1.012974
      16A     -1.012974    17A     -0.825278    18A     -0.825278
      19A     -0.804606    20A     -0.804606    21A     -0.761548
      22A     -0.761548    23A     -0.610975    24A     -0.610975
      25A     -0.604845    26A     -0.604845    27A     -0.602806
      28A     -0.602806    29A     -0.571801    30A     -0.571801
      31A     -0.436338    32A     -0.436338    33A     -0.401338
      34A     -0.401338    35A     -0.321560    36A     -0.321560

    Virtual:

      37A      0.024341    38A      0.024342    39A      0.040682
      40A      0.040682    41A      0.049188    42A      0.049189
      43A      0.061013    44A      0.061014    45A      0.088199
      46A      0.088199    47A      0.100542    48A      0.100542
      49A      0.119926    50A      0.119927    51A      0.124692
      52A      0.124693    53A      0.132504    54A      0.132507
      55A      0.132973    56A      0.132973    57A      0.140098
      58A      0.140098    59A      0.155608    60A      0.155608
      61A      0.157776    62A      0.157776    63A      0.171239
      64A      0.171239    65A      0.177275    66A      0.177275
      67A      0.186297    68A      0.186298    69A      0.210695
      70A      0.210695    71A      0.219395    72A      0.219395
      73A      0.231494    74A      0.231494    75A      0.240510
      76A      0.240510    77A      0.260702    78A      0.260702
      79A      0.267005    80A      0.267006    81A      0.277079
      82A      0.277079    83A      0.300850    84A      0.300850
      85A      0.313595    86A      0.313595    87A      0.337342
      88A      0.337342    89A      0.360592    90A      0.360593
      91A      0.369834    92A      0.369834    93A      0.378886
      94A      0.378887    95A      0.387396    96A      0.387396
      97A      0.396203    98A      0.396203    99A      0.416195
     100A      0.416195   101A      0.428153   102A      0.428154
     103A      0.451183   104A      0.451183   105A      0.465458
     106A      0.465458   107A      0.480314   108A      0.480314
     109A      0.485420   110A      0.485420   111A      0.487294
     112A      0.487294   113A      0.550822   114A      0.550822
     115A      0.555497   116A      0.555497   117A      0.567399
     118A      0.567399   119A      0.575585   120A      0.575585
     121A      0.593344   122A      0.593344   123A      0.598043
     124A      0.598044   125A      0.615223   126A      0.615223
     127A      0.635662   128A      0.635663   129A      0.651642
     130A      0.651642   131A      0.668415   132A      0.668416
     133A      0.670465   134A      0.670465   135A      0.677277
     136A      0.677278   137A      0.683014   138A      0.683014
     139A      0.713809   140A      0.713809   141A      0.724859
     142A      0.724859   143A      0.740372   144A      0.740372
     145A      0.761839   146A      0.761839   147A      0.766527
     148A      0.766527   149A      0.790043   150A      0.790043
     151A      0.792726   152A      0.792726   153A      0.808855
     154A      0.808855   155A      0.859520   156A      0.859520
     157A      0.870550   158A      0.870550   159A      0.884903
     160A      0.884903   161A      0.888958   162A      0.888958
     163A      0.953471   164A      0.953471   165A      0.976069
     166A      0.976069   167A      0.997487   168A      0.997488
     169A      1.009846   170A      1.009846   171A      1.016535
     172A      1.016535   173A      1.029796   174A      1.029796
     175A      1.076488   176A      1.076488   177A      1.083667
     178A      1.083668   179A      1.126112   180A      1.126112
     181A      1.139634   182A      1.139634   183A      1.148685
     184A      1.148685   185A      1.166303   186A      1.166303
     187A      1.216580   188A      1.216580   189A      1.259834
     190A      1.259834   191A      1.301679   192A      1.301679
     193A      1.384131   194A      1.384131   195A      1.397281
     196A      1.397281   197A      1.450265   198A      1.450265
     199A      1.502419   200A      1.502420   201A      1.517524
     202A      1.517524   203A      1.573252   204A      1.573252
     205A      1.573426   206A      1.573426   207A      1.595501
     208A      1.595501   209A      1.651280   210A      1.651280
     211A      1.670642   212A      1.670642   213A      1.704415
     214A      1.704415   215A      1.723600   216A      1.723600
     217A      1.781764   218A      1.781764   219A      1.798199
     220A      1.798199   221A      1.806206   222A      1.806206
     223A      1.864080   224A      1.864080   225A      1.880594
     226A      1.880594   227A      1.923514   228A      1.923514
     229A      1.964102   230A      1.964102   231A      2.021112
     232A      2.021113   233A      2.024540   234A      2.024540
     235A      2.072098   236A      2.072098   237A      2.106179
     238A      2.106179   239A      2.125890   240A      2.125890
     241A      2.135092   242A      2.135092   243A      2.167793
     244A      2.167793   245A      2.177929   246A      2.177929
     247A      2.266198   248A      2.266198   249A      2.275087
     250A      2.275087   251A      2.300039   252A      2.300039
     253A      2.331189   254A      2.331189   255A      2.416881
     256A      2.416881   257A      2.496016   258A      2.496016
     259A      2.513152   260A      2.513152   261A      2.544434
     262A      2.544435   263A      2.584865   264A      2.584865
     265A      2.632892   266A      2.632892   267A      2.733225
     268A      2.733225   269A      2.746147   270A      2.746147
     271A      2.766211   272A      2.766211   273A      2.793269
     274A      2.793269   275A      2.802569   276A      2.802569
     277A      2.836749   278A      2.836749   279A      2.866328
     280A      2.866328   281A      2.951852   282A      2.951852
     283A      2.979989   284A      2.979989   285A      3.050327
     286A      3.050327   287A      3.069035   288A      3.069035
     289A      3.198280   290A      3.198280   291A      3.207916
     292A      3.207916   293A      3.333931   294A      3.333931
     295A      3.353697   296A      3.353697   297A      3.517677
     298A      3.517677   299A      3.767420   300A      3.767420
     301A      4.108139   302A      4.108139

    Final Occupation by Irrep:
              A
    DOCC [    36 ]

  @DF-RHF Final Energy:  -449.68734861240324

   => Energetics <=

    Nuclear Repulsion Energy =            361.4663423758386216
    One-Electron Energy =               -1324.3865987006331579
    Two-Electron Energy =                 513.2329077123912384
    Total Energy =                       -449.6873486124032979

Computation Completed


Properties will be evaluated at   0.000000,   0.000000,   0.000000 [a0]

Properties computed using the SCF density matrix

  Nuclear Dipole Moment: [e a0]
     X:  -195.2076      Y:  -332.8826      Z: -1143.2350

  Electronic Dipole Moment: [e a0]
     X:   195.2076      Y:   332.8826      Z:  1143.2350

  Dipole Moment: [e a0]
     X:     0.0000      Y:    -0.0000      Z:    -0.0000     Total:     0.0000

  Dipole Moment: [D]
     X:     0.0000      Y:    -0.0000      Z:    -0.0000     Total:     0.0000


*** tstop() called on ds1 at Tue Sep 14 16:24:55 2021
Module time:
	user time   =      22.14 seconds =       0.37 minutes
	system time =       0.61 seconds =       0.01 minutes
	total time  =          4 seconds =       0.07 minutes
Total time:
	user time   =      22.14 seconds =       0.37 minutes
	system time =       0.61 seconds =       0.01 minutes
	total time  =          4 seconds =       0.07 minutes

  //>>>>>>>>>>>>>>>>>>>>>>>>>>>>>>>>>>>//
  //            Monomer A HF           //
  //<<<<<<<<<<<<<<<<<<<<<<<<<<<<<<<<<<<//


*** tstart() called on ds1
*** at Tue Sep 14 16:24:55 2021

   => Loading Basis Set <=

    Name: AUG-CC-PVDZ
    Role: ORBITAL
    Keyword: BASIS
    atoms 1-2, 10-11 entry N          line   218 file /theoryfs2/ds/csargent/miniconda3/envs/cle/share/psi4/basis/aug-cc-pvdz.gbs
    atoms 3-6, 12-15 entry H          line    40 file /theoryfs2/ds/csargent/miniconda3/envs/cle/share/psi4/basis/aug-cc-pvdz.gbs
    atoms 7-9, 16-18 entry C          line   182 file /theoryfs2/ds/csargent/miniconda3/envs/cle/share/psi4/basis/aug-cc-pvdz.gbs


         ---------------------------------------------------------
                                   SCF
               by Justin Turney, Rob Parrish, Andy Simmonett
                          and Daniel G. A. Smith
                              RHF Reference
                        6 Threads,   6675 MiB Core
         ---------------------------------------------------------

  ==> Geometry <==

    Molecular point group: c1
    Full point group: C1

    Geometry (in Bohr), charge = 0, multiplicity = 1:

       Center              X                  Y                   Z               Mass
    ------------   -----------------  -----------------  -----------------  -----------------
         N           -4.293096210000    -3.068374310000     5.305162310000    14.003074004430
         N           -2.158473710000    -2.926272960000     1.720374480000    14.003074004430
         H           -0.025455870000    -6.359035750000     2.220464520000     1.007825032230
         H           -2.685669680000    -6.532602410000     6.614459540000     1.007825032230
         H           -4.743884230000    -0.006090060000     2.756159680000     1.007825032230
         H           -1.410455400000    -2.247231470000     0.000000000000     1.007825032230
         C           -1.437379910000    -5.075048480000     2.940658910000    12.000000000000
         C           -2.769007820000    -5.146099160000     5.135228800000    12.000000000000
         C           -3.859550360000    -1.777281980000     3.210934110000    12.000000000000
      Gh(N)          -1.129338270000    -6.178364020000   -37.061689120000    14.003074004430
      Gh(N)          -3.263960770000    -6.320465380000   -33.476901290000    14.003074004430
      Gh(H)          -5.396978610000    -2.887702590000   -33.976991330000     1.007825032230
      Gh(H)          -2.736764800000    -2.714135930000   -38.370986350000     1.007825032230
      Gh(H)          -0.678550250000    -9.240648280000   -34.512686490000     1.007825032230
      Gh(H)          -4.011979070000    -6.999506870000   -31.756526810000     1.007825032230
      Gh(C)          -3.985054570000    -4.171689850000   -34.697185720000    12.000000000000
      Gh(C)          -2.653426660000    -4.100639170000   -36.891755610000    12.000000000000
      Gh(C)          -1.562884120000    -7.469456360000   -34.967460920000    12.000000000000

  Running in c1 symmetry.

  Rotational constants: A =      0.02651  B =      0.00068  C =      0.00067 [cm^-1]
  Rotational constants: A =    794.88666  B =     20.31396  C =     19.95100 [MHz]
  Nuclear repulsion =  164.086695994184396

  Charge       = 0
  Multiplicity = 1
  Electrons    = 36
  Nalpha       = 18
  Nbeta        = 18

  ==> Algorithm <==

  SCF Algorithm Type is DF.
  DIIS enabled.
  MOM disabled.
  Fractional occupation disabled.
  Guess Type is SAD.
  Energy threshold   = 1.00e-10
  Density threshold  = 1.00e-10
  Integral threshold = 1.00e-12

  ==> Primary Basis <==

  Basis Set: AUG-CC-PVDZ
    Blend: AUG-CC-PVDZ
    Number of shells: 130
    Number of basis functions: 302
    Number of Cartesian functions: 322
    Spherical Harmonics?: true
    Max angular momentum: 2

   => Loading Basis Set <=

    Name: (AUG-CC-PVDZ AUX)
    Role: JKFIT
    Keyword: DF_BASIS_SCF
    atoms 1-2, 10-11 entry N          line   212 file /theoryfs2/ds/csargent/miniconda3/envs/cle/share/psi4/basis/aug-cc-pvdz-jkfit.gbs
    atoms 3-6, 12-15 entry H          line    70 file /theoryfs2/ds/csargent/miniconda3/envs/cle/share/psi4/basis/aug-cc-pvdz-jkfit.gbs
    atoms 7-9, 16-18 entry C          line   154 file /theoryfs2/ds/csargent/miniconda3/envs/cle/share/psi4/basis/aug-cc-pvdz-jkfit.gbs

  ==> Integral Setup <==

  ==> DiskDFJK: Density-Fitted J/K Matrices <==

    J tasked:                  Yes
    K tasked:                  Yes
    wK tasked:                  No
    OpenMP threads:              6
    Integrals threads:           6
    Memory [MiB]:             5006
    Algorithm:                Core
    Integral Cache:           LOAD
    Schwarz Cutoff:          1E-12
    Fitting Condition:       1E-10

   => Auxiliary Basis Set <=

  Basis Set: (AUG-CC-PVDZ AUX)
    Blend: AUG-CC-PVDZ-JKFIT
    Number of shells: 376
    Number of basis functions: 1116
    Number of Cartesian functions: 1290
    Spherical Harmonics?: true
    Max angular momentum: 3

  Minimum eigenvalue in the overlap matrix is 2.1837060003E-05.
  Reciprocal condition number of the overlap matrix is 1.8394511598E-06.
    Using symmetric orthogonalization.

  ==> Pre-Iterations <==

  SCF Guess: Superposition of Atomic Densities via on-the-fly atomic UHF (no occupation information).

   -------------------------
    Irrep   Nso     Nmo
   -------------------------
     A        302     302
   -------------------------
    Total     302     302
   -------------------------

  ==> Iterations <==

                           Total Energy        Delta E     RMS |[F,P]|

   @DF-RHF iter SAD:  -224.55857169560852   -2.24559e+02   0.00000e+00
   @DF-RHF iter   1:  -224.69806464891673   -1.39493e-01   1.63067e-03 DIIS
   @DF-RHF iter   2:  -224.80532026722378   -1.07256e-01   9.27384e-04 DIIS
   @DF-RHF iter   3:  -224.84168817108164   -3.63679e-02   1.74019e-04 DIIS
   @DF-RHF iter   4:  -224.84337342314677   -1.68525e-03   7.98972e-05 DIIS
   @DF-RHF iter   5:  -224.84367500385889   -3.01581e-04   1.26452e-05 DIIS
   @DF-RHF iter   6:  -224.84369234089172   -1.73370e-05   5.61871e-06 DIIS
   @DF-RHF iter   7:  -224.84369542896087   -3.08807e-06   2.19503e-06 DIIS
   @DF-RHF iter   8:  -224.84369616087935   -7.31918e-07   7.77587e-07 DIIS
   @DF-RHF iter   9:  -224.84369627167371   -1.10794e-07   1.87961e-07 DIIS
   @DF-RHF iter  10:  -224.84369627720918   -5.53547e-09   7.33125e-08 DIIS
   @DF-RHF iter  11:  -224.84369627803517   -8.25992e-10   3.26918e-08 DIIS
   @DF-RHF iter  12:  -224.84369627818711   -1.51942e-10   9.70884e-09 DIIS
   @DF-RHF iter  13:  -224.84369627820089   -1.37845e-11   3.58840e-09 DIIS
   @DF-RHF iter  14:  -224.84369627820229   -1.39266e-12   1.58275e-09 DIIS
   @DF-RHF iter  15:  -224.84369627820271   -4.26326e-13   5.27556e-10 DIIS
   @DF-RHF iter  16:  -224.84369627820286   -1.42109e-13   2.34517e-10 DIIS
   @DF-RHF iter  17:  -224.84369627820249    3.69482e-13   4.71136e-11 DIIS
  Energy and wave function converged.


  ==> Post-Iterations <==

    Orbital Energies [Eh]
    ---------------------

    Doubly Occupied:

       1A    -15.637071     2A    -15.551216     3A    -11.300916
       4A    -11.263160     5A    -11.245653     6A     -1.352867
       7A     -1.169098     8A     -1.012098     9A     -0.824390
      10A     -0.803731    11A     -0.760666    12A     -0.610096
      13A     -0.603958    14A     -0.601922    15A     -0.570942
      16A     -0.435483    17A     -0.400464    18A     -0.320685

    Virtual:

      19A      0.021787    20A      0.025388    21A      0.039358
      22A      0.041580    23A      0.042796    24A      0.049997
      25A      0.061864    26A      0.066847    27A      0.075760
      28A      0.085470    29A      0.089096    30A      0.096765
      31A      0.101397    32A      0.120831    33A      0.123787
      34A      0.124286    35A      0.125577    36A      0.126122
      37A      0.126499    38A      0.133339    39A      0.133472
      40A      0.133773    41A      0.137334    42A      0.140942
      43A      0.155981    44A      0.156500    45A      0.158699
      46A      0.171988    47A      0.178189    48A      0.187224
      49A      0.191319    50A      0.206934    51A      0.208621
      52A      0.211559    53A      0.211812    54A      0.219582
      55A      0.220268    56A      0.221828    57A      0.232303
      58A      0.232359    59A      0.241408    60A      0.261605
      61A      0.267803    62A      0.271340    63A      0.277911
      64A      0.298668    65A      0.301746    66A      0.305686
      67A      0.314442    68A      0.318484    69A      0.338197
      70A      0.359419    71A      0.361488    72A      0.370745
      73A      0.374734    74A      0.379800    75A      0.388291
      76A      0.392680    77A      0.397097    78A      0.417031
      79A      0.426653    80A      0.429000    81A      0.434403
      82A      0.439663    83A      0.448238    84A      0.451322
      85A      0.452059    86A      0.466350    87A      0.467357
      88A      0.480303    89A      0.481229    90A      0.486283
      91A      0.488151    92A      0.516613    93A      0.519798
      94A      0.535225    95A      0.537435    96A      0.542382
      97A      0.551710    98A      0.555058    99A      0.556382
     100A      0.568280   101A      0.576474   102A      0.578572
     103A      0.586812   104A      0.594249   105A      0.598939
     106A      0.605722   107A      0.611305   108A      0.616080
     109A      0.617573   110A      0.636538   111A      0.639019
     112A      0.652504   113A      0.669282   114A      0.671337
     115A      0.676890   116A      0.678185   117A      0.683050
     118A      0.683874   119A      0.710488   120A      0.714698
     121A      0.725758   122A      0.735376   123A      0.741238
     124A      0.755362   125A      0.762698   126A      0.767400
     127A      0.790929   128A      0.793606   129A      0.797475
     130A      0.809729   131A      0.809747   132A      0.811717
     133A      0.822531   134A      0.835900   135A      0.858890
     136A      0.860398   137A      0.871425   138A      0.885765
     139A      0.885833   140A      0.889823   141A      0.909002
     142A      0.918933   143A      0.926189   144A      0.954351
     145A      0.968003   146A      0.976964   147A      0.991114
     148A      0.998360   149A      1.010706   150A      1.014729
     151A      1.017404   152A      1.030676   153A      1.058290
     154A      1.077353   155A      1.077866   156A      1.084552
     157A      1.102936   158A      1.115272   159A      1.126983
     160A      1.131702   161A      1.140497   162A      1.149565
     163A      1.167170   164A      1.170176   165A      1.173340
     166A      1.196836   167A      1.209847   168A      1.217445
     169A      1.260721   170A      1.277336   171A      1.289933
     172A      1.296297   173A      1.302539   174A      1.311844
     175A      1.317381   176A      1.346879   177A      1.383353
     178A      1.385028   179A      1.398145   180A      1.451143
     181A      1.494197   182A      1.503288   183A      1.515121
     184A      1.518410   185A      1.540622   186A      1.574127
     187A      1.574285   188A      1.596381   189A      1.652159
     190A      1.660225   191A      1.671505   192A      1.705286
     193A      1.724477   194A      1.782643   195A      1.799067
     196A      1.807063   197A      1.864950   198A      1.881477
     199A      1.924391   200A      1.964987   201A      2.022005
     202A      2.025429   203A      2.039008   204A      2.072981
     205A      2.100387   206A      2.107054   207A      2.118768
     208A      2.126759   209A      2.130715   210A      2.135965
     211A      2.148828   212A      2.168670   213A      2.178815
     214A      2.184461   215A      2.229056   216A      2.252118
     217A      2.267082   218A      2.275963   219A      2.300924
     220A      2.308024   221A      2.326545   222A      2.332072
     223A      2.376211   224A      2.404885   225A      2.412730
     226A      2.417758   227A      2.455116   228A      2.470206
     229A      2.493299   230A      2.496919   231A      2.514025
     232A      2.525256   233A      2.544891   234A      2.545345
     235A      2.576279   236A      2.585743   237A      2.599293
     238A      2.633765   239A      2.695612   240A      2.734093
     241A      2.747025   242A      2.767089   243A      2.789812
     244A      2.794149   245A      2.803444   246A      2.828320
     247A      2.837641   248A      2.867213   249A      2.895268
     250A      2.932730   251A      2.948854   252A      2.952738
     253A      2.980862   254A      3.042994   255A      3.051201
     256A      3.069910   257A      3.075676   258A      3.131382
     259A      3.159131   260A      3.182475   261A      3.199163
     262A      3.208795   263A      3.212913   264A      3.334816
     265A      3.340347   266A      3.354252   267A      3.354572
     268A      3.362394   269A      3.458157   270A      3.494009
     271A      3.518552   272A      3.569047   273A      3.608487
     274A      3.706737   275A      3.726235   276A      3.768294
     277A      3.777889   278A      3.797667   279A      3.857460
     280A      3.870255   281A      4.003421   282A      4.109022
     283A      4.212267   284A      4.636275   285A      4.638355
     286A      4.695521   287A      4.771327   288A      4.879590
     289A      5.020954   290A      5.254254   291A      5.372737
     292A      5.494404   293A      5.609911   294A      5.715789
     295A      5.883467   296A      6.089185   297A      6.197710
     298A     18.255029   299A     18.589677   300A     19.299988
     301A     25.311529   302A     25.452753

    Final Occupation by Irrep:
              A
    DOCC [    18 ]

  @DF-RHF Final Energy:  -224.84369627820249

   => Energetics <=

    Nuclear Repulsion Energy =            164.0866959941843959
    One-Electron Energy =                -628.9319562989536507
    Two-Electron Energy =                 240.0015640265667400
    Total Energy =                       -224.8436962782024864

Computation Completed


Properties will be evaluated at   0.000000,   0.000000,   0.000000 [a0]

Properties computed using the SCF density matrix

  Nuclear Dipole Moment: [e a0]
     X:  -102.4221      Y:  -129.0981      Z:   128.4908

  Electronic Dipole Moment: [e a0]
     X:   103.2259      Y:   129.2613      Z:  -129.8232

  Dipole Moment: [e a0]
     X:     0.8038      Y:     0.1633      Z:    -1.3324     Total:     1.5646

  Dipole Moment: [D]
     X:     2.0431      Y:     0.4150      Z:    -3.3867     Total:     3.9769


*** tstop() called on ds1 at Tue Sep 14 16:24:59 2021
Module time:
	user time   =      15.85 seconds =       0.26 minutes
	system time =       0.34 seconds =       0.01 minutes
	total time  =          4 seconds =       0.07 minutes
Total time:
	user time   =      38.02 seconds =       0.63 minutes
	system time =       0.95 seconds =       0.02 minutes
	total time  =          8 seconds =       0.13 minutes

  //>>>>>>>>>>>>>>>>>>>>>>>>>>>>>>>>>>>//
  //            Monomer B HF           //
  //<<<<<<<<<<<<<<<<<<<<<<<<<<<<<<<<<<<//


*** tstart() called on ds1
*** at Tue Sep 14 16:24:59 2021

   => Loading Basis Set <=

    Name: AUG-CC-PVDZ
    Role: ORBITAL
    Keyword: BASIS
    atoms 1-2, 10-11 entry N          line   218 file /theoryfs2/ds/csargent/miniconda3/envs/cle/share/psi4/basis/aug-cc-pvdz.gbs
    atoms 3-6, 12-15 entry H          line    40 file /theoryfs2/ds/csargent/miniconda3/envs/cle/share/psi4/basis/aug-cc-pvdz.gbs
    atoms 7-9, 16-18 entry C          line   182 file /theoryfs2/ds/csargent/miniconda3/envs/cle/share/psi4/basis/aug-cc-pvdz.gbs


         ---------------------------------------------------------
                                   SCF
               by Justin Turney, Rob Parrish, Andy Simmonett
                          and Daniel G. A. Smith
                              RHF Reference
                        6 Threads,   6675 MiB Core
         ---------------------------------------------------------

  ==> Geometry <==

    Molecular point group: c1
    Full point group: C1

    Geometry (in Bohr), charge = 0, multiplicity = 1:

       Center              X                  Y                   Z               Mass
    ------------   -----------------  -----------------  -----------------  -----------------
      Gh(N)          -4.293096210000    -3.068374310000     5.305162310000    14.003074004430
      Gh(N)          -2.158473710000    -2.926272960000     1.720374480000    14.003074004430
      Gh(H)          -0.025455870000    -6.359035750000     2.220464520000     1.007825032230
      Gh(H)          -2.685669680000    -6.532602410000     6.614459540000     1.007825032230
      Gh(H)          -4.743884230000    -0.006090060000     2.756159680000     1.007825032230
      Gh(H)          -1.410455400000    -2.247231470000     0.000000000000     1.007825032230
      Gh(C)          -1.437379910000    -5.075048480000     2.940658910000    12.000000000000
      Gh(C)          -2.769007820000    -5.146099160000     5.135228800000    12.000000000000
      Gh(C)          -3.859550360000    -1.777281980000     3.210934110000    12.000000000000
         N           -1.129338270000    -6.178364020000   -37.061689120000    14.003074004430
         N           -3.263960770000    -6.320465380000   -33.476901290000    14.003074004430
         H           -5.396978610000    -2.887702590000   -33.976991330000     1.007825032230
         H           -2.736764800000    -2.714135930000   -38.370986350000     1.007825032230
         H           -0.678550250000    -9.240648280000   -34.512686490000     1.007825032230
         H           -4.011979070000    -6.999506870000   -31.756526810000     1.007825032230
         C           -3.985054570000    -4.171689850000   -34.697185720000    12.000000000000
         C           -2.653426660000    -4.100639170000   -36.891755610000    12.000000000000
         C           -1.562884120000    -7.469456360000   -34.967460920000    12.000000000000

  Running in c1 symmetry.

  Rotational constants: A =      0.02651  B =      0.00068  C =      0.00067 [cm^-1]
  Rotational constants: A =    794.88666  B =     20.31396  C =     19.95100 [MHz]
  Nuclear repulsion =  164.086695882942792

  Charge       = 0
  Multiplicity = 1
  Electrons    = 36
  Nalpha       = 18
  Nbeta        = 18

  ==> Algorithm <==

  SCF Algorithm Type is DF.
  DIIS enabled.
  MOM disabled.
  Fractional occupation disabled.
  Guess Type is SAD.
  Energy threshold   = 1.00e-10
  Density threshold  = 1.00e-10
  Integral threshold = 1.00e-12

  ==> Primary Basis <==

  Basis Set: AUG-CC-PVDZ
    Blend: AUG-CC-PVDZ
    Number of shells: 130
    Number of basis functions: 302
    Number of Cartesian functions: 322
    Spherical Harmonics?: true
    Max angular momentum: 2

   => Loading Basis Set <=

    Name: (AUG-CC-PVDZ AUX)
    Role: JKFIT
    Keyword: DF_BASIS_SCF
    atoms 1-2, 10-11 entry N          line   212 file /theoryfs2/ds/csargent/miniconda3/envs/cle/share/psi4/basis/aug-cc-pvdz-jkfit.gbs
    atoms 3-6, 12-15 entry H          line    70 file /theoryfs2/ds/csargent/miniconda3/envs/cle/share/psi4/basis/aug-cc-pvdz-jkfit.gbs
    atoms 7-9, 16-18 entry C          line   154 file /theoryfs2/ds/csargent/miniconda3/envs/cle/share/psi4/basis/aug-cc-pvdz-jkfit.gbs

  ==> Integral Setup <==

  ==> DiskDFJK: Density-Fitted J/K Matrices <==

    J tasked:                  Yes
    K tasked:                  Yes
    wK tasked:                  No
    OpenMP threads:              6
    Integrals threads:           6
    Memory [MiB]:             5006
    Algorithm:                Core
    Integral Cache:           LOAD
    Schwarz Cutoff:          1E-12
    Fitting Condition:       1E-10

   => Auxiliary Basis Set <=

  Basis Set: (AUG-CC-PVDZ AUX)
    Blend: AUG-CC-PVDZ-JKFIT
    Number of shells: 376
    Number of basis functions: 1116
    Number of Cartesian functions: 1290
    Spherical Harmonics?: true
    Max angular momentum: 3

  Minimum eigenvalue in the overlap matrix is 2.1837060003E-05.
  Reciprocal condition number of the overlap matrix is 1.8394511598E-06.
    Using symmetric orthogonalization.

  ==> Pre-Iterations <==

  SCF Guess: Superposition of Atomic Densities via on-the-fly atomic UHF (no occupation information).

   -------------------------
    Irrep   Nso     Nmo
   -------------------------
     A        302     302
   -------------------------
    Total     302     302
   -------------------------

  ==> Iterations <==

                           Total Energy        Delta E     RMS |[F,P]|

   @DF-RHF iter SAD:  -224.55857168324903   -2.24559e+02   0.00000e+00
   @DF-RHF iter   1:  -224.69806464833590   -1.39493e-01   1.63067e-03 DIIS
   @DF-RHF iter   2:  -224.80532026621532   -1.07256e-01   9.27384e-04 DIIS
   @DF-RHF iter   3:  -224.84168817009115   -3.63679e-02   1.74019e-04 DIIS
   @DF-RHF iter   4:  -224.84337342216858   -1.68525e-03   7.98972e-05 DIIS
   @DF-RHF iter   5:  -224.84367500288164   -3.01581e-04   1.26452e-05 DIIS
   @DF-RHF iter   6:  -224.84369233991470   -1.73370e-05   5.61871e-06 DIIS
   @DF-RHF iter   7:  -224.84369542798373   -3.08807e-06   2.19503e-06 DIIS
   @DF-RHF iter   8:  -224.84369615990221   -7.31918e-07   7.77587e-07 DIIS
   @DF-RHF iter   9:  -224.84369627069648   -1.10794e-07   1.87961e-07 DIIS
   @DF-RHF iter  10:  -224.84369627623192   -5.53544e-09   7.33125e-08 DIIS
   @DF-RHF iter  11:  -224.84369627705874   -8.26816e-10   3.26918e-08 DIIS
   @DF-RHF iter  12:  -224.84369627721071   -1.51971e-10   9.70884e-09 DIIS
   @DF-RHF iter  13:  -224.84369627722364   -1.29319e-11   3.58840e-09 DIIS
   @DF-RHF iter  14:  -224.84369627722523   -1.59162e-12   1.58275e-09 DIIS
   @DF-RHF iter  15:  -224.84369627722563   -3.97904e-13   5.27556e-10 DIIS
   @DF-RHF iter  16:  -224.84369627722546    1.70530e-13   2.34517e-10 DIIS
   @DF-RHF iter  17:  -224.84369627722558   -1.13687e-13   4.71139e-11 DIIS
  Energy and wave function converged.


  ==> Post-Iterations <==

    Orbital Energies [Eh]
    ---------------------

    Doubly Occupied:

       1A    -15.637071     2A    -15.551216     3A    -11.300916
       4A    -11.263160     5A    -11.245653     6A     -1.352867
       7A     -1.169098     8A     -1.012098     9A     -0.824390
      10A     -0.803731    11A     -0.760666    12A     -0.610096
      13A     -0.603958    14A     -0.601922    15A     -0.570942
      16A     -0.435483    17A     -0.400464    18A     -0.320685

    Virtual:

      19A      0.021787    20A      0.025388    21A      0.039358
      22A      0.041580    23A      0.042796    24A      0.049997
      25A      0.061864    26A      0.066847    27A      0.075760
      28A      0.085470    29A      0.089096    30A      0.096765
      31A      0.101397    32A      0.120831    33A      0.123787
      34A      0.124286    35A      0.125577    36A      0.126122
      37A      0.126499    38A      0.133339    39A      0.133472
      40A      0.133773    41A      0.137334    42A      0.140942
      43A      0.155981    44A      0.156500    45A      0.158699
      46A      0.171988    47A      0.178189    48A      0.187224
      49A      0.191319    50A      0.206934    51A      0.208621
      52A      0.211559    53A      0.211812    54A      0.219582
      55A      0.220268    56A      0.221828    57A      0.232303
      58A      0.232359    59A      0.241408    60A      0.261605
      61A      0.267803    62A      0.271340    63A      0.277911
      64A      0.298668    65A      0.301746    66A      0.305686
      67A      0.314442    68A      0.318484    69A      0.338197
      70A      0.359419    71A      0.361488    72A      0.370745
      73A      0.374734    74A      0.379800    75A      0.388291
      76A      0.392680    77A      0.397097    78A      0.417031
      79A      0.426653    80A      0.429000    81A      0.434403
      82A      0.439663    83A      0.448238    84A      0.451322
      85A      0.452059    86A      0.466350    87A      0.467357
      88A      0.480303    89A      0.481229    90A      0.486283
      91A      0.488151    92A      0.516613    93A      0.519798
      94A      0.535225    95A      0.537435    96A      0.542382
      97A      0.551710    98A      0.555058    99A      0.556382
     100A      0.568280   101A      0.576474   102A      0.578572
     103A      0.586812   104A      0.594249   105A      0.598939
     106A      0.605722   107A      0.611305   108A      0.616080
     109A      0.617573   110A      0.636538   111A      0.639019
     112A      0.652504   113A      0.669282   114A      0.671337
     115A      0.676890   116A      0.678185   117A      0.683050
     118A      0.683874   119A      0.710488   120A      0.714698
     121A      0.725758   122A      0.735376   123A      0.741238
     124A      0.755362   125A      0.762698   126A      0.767400
     127A      0.790929   128A      0.793606   129A      0.797475
     130A      0.809729   131A      0.809747   132A      0.811717
     133A      0.822531   134A      0.835900   135A      0.858890
     136A      0.860398   137A      0.871425   138A      0.885765
     139A      0.885833   140A      0.889823   141A      0.909002
     142A      0.918933   143A      0.926189   144A      0.954351
     145A      0.968003   146A      0.976964   147A      0.991114
     148A      0.998360   149A      1.010706   150A      1.014729
     151A      1.017404   152A      1.030676   153A      1.058290
     154A      1.077353   155A      1.077866   156A      1.084552
     157A      1.102936   158A      1.115272   159A      1.126983
     160A      1.131702   161A      1.140497   162A      1.149565
     163A      1.167170   164A      1.170176   165A      1.173340
     166A      1.196836   167A      1.209847   168A      1.217445
     169A      1.260721   170A      1.277336   171A      1.289933
     172A      1.296297   173A      1.302539   174A      1.311844
     175A      1.317381   176A      1.346879   177A      1.383353
     178A      1.385028   179A      1.398145   180A      1.451143
     181A      1.494197   182A      1.503288   183A      1.515121
     184A      1.518410   185A      1.540622   186A      1.574127
     187A      1.574285   188A      1.596381   189A      1.652159
     190A      1.660225   191A      1.671505   192A      1.705286
     193A      1.724477   194A      1.782643   195A      1.799067
     196A      1.807063   197A      1.864950   198A      1.881477
     199A      1.924391   200A      1.964987   201A      2.022005
     202A      2.025429   203A      2.039008   204A      2.072981
     205A      2.100387   206A      2.107054   207A      2.118768
     208A      2.126759   209A      2.130715   210A      2.135965
     211A      2.148828   212A      2.168670   213A      2.178815
     214A      2.184461   215A      2.229056   216A      2.252118
     217A      2.267082   218A      2.275963   219A      2.300924
     220A      2.308024   221A      2.326545   222A      2.332072
     223A      2.376211   224A      2.404885   225A      2.412730
     226A      2.417758   227A      2.455116   228A      2.470206
     229A      2.493299   230A      2.496919   231A      2.514025
     232A      2.525256   233A      2.544891   234A      2.545345
     235A      2.576279   236A      2.585743   237A      2.599293
     238A      2.633765   239A      2.695612   240A      2.734093
     241A      2.747025   242A      2.767089   243A      2.789812
     244A      2.794149   245A      2.803444   246A      2.828320
     247A      2.837641   248A      2.867213   249A      2.895268
     250A      2.932730   251A      2.948854   252A      2.952738
     253A      2.980862   254A      3.042994   255A      3.051201
     256A      3.069910   257A      3.075676   258A      3.131382
     259A      3.159131   260A      3.182475   261A      3.199163
     262A      3.208795   263A      3.212913   264A      3.334816
     265A      3.340347   266A      3.354252   267A      3.354572
     268A      3.362394   269A      3.458157   270A      3.494009
     271A      3.518552   272A      3.569047   273A      3.608487
     274A      3.706737   275A      3.726235   276A      3.768294
     277A      3.777889   278A      3.797667   279A      3.857460
     280A      3.870255   281A      4.003421   282A      4.109022
     283A      4.212267   284A      4.636275   285A      4.638355
     286A      4.695521   287A      4.771327   288A      4.879590
     289A      5.020954   290A      5.254254   291A      5.372737
     292A      5.494404   293A      5.609911   294A      5.715789
     295A      5.883467   296A      6.089185   297A      6.197710
     298A     18.255029   299A     18.589677   300A     19.299988
     301A     25.311529   302A     25.452753

    Final Occupation by Irrep:
              A
    DOCC [    18 ]

  @DF-RHF Final Energy:  -224.84369627722558

   => Energetics <=

    Nuclear Repulsion Energy =            164.0866958829427915
    One-Electron Energy =                -628.9319560793452411
    Two-Electron Energy =                 240.0015639191769026
    Total Energy =                       -224.8436962772255754

Computation Completed


Properties will be evaluated at   0.000000,   0.000000,   0.000000 [a0]

Properties computed using the SCF density matrix

  Nuclear Dipole Moment: [e a0]
     X:   -92.7856      Y:  -203.7845      Z: -1271.7257

  Electronic Dipole Moment: [e a0]
     X:    91.9818      Y:   203.6212      Z:  1273.0582

  Dipole Moment: [e a0]
     X:    -0.8038      Y:    -0.1633      Z:     1.3324     Total:     1.5646

  Dipole Moment: [D]
     X:    -2.0431      Y:    -0.4150      Z:     3.3867     Total:     3.9769


*** tstop() called on ds1 at Tue Sep 14 16:25:02 2021
Module time:
	user time   =      15.93 seconds =       0.27 minutes
	system time =       0.36 seconds =       0.01 minutes
	total time  =          3 seconds =       0.05 minutes
Total time:
	user time   =      54.10 seconds =       0.90 minutes
	system time =       1.32 seconds =       0.02 minutes
	total time  =         11 seconds =       0.18 minutes
  Constructing Basis Sets for SAPT...

   => Loading Basis Set <=

    Name: (AUG-CC-PVDZ AUX)
    Role: RIFIT
    Keyword: DF_BASIS_SAPT
    atoms 1-2, 10-11 entry N          line   158 file /theoryfs2/ds/csargent/miniconda3/envs/cle/share/psi4/basis/aug-cc-pvdz-ri.gbs
    atoms 3-6, 12-15 entry H          line    30 file /theoryfs2/ds/csargent/miniconda3/envs/cle/share/psi4/basis/aug-cc-pvdz-ri.gbs
    atoms 7-9, 16-18 entry C          line   112 file /theoryfs2/ds/csargent/miniconda3/envs/cle/share/psi4/basis/aug-cc-pvdz-ri.gbs


  //>>>>>>>>>>>>>>>>>>>>>>>>>>>>>>>>>>>//
  //               SAPT0               //
  //<<<<<<<<<<<<<<<<<<<<<<<<<<<<<<<<<<<//


*** tstart() called on ds1
*** at Tue Sep 14 16:25:03 2021

        SAPT0
    Ed Hohenstein
     6 June 2009

      Orbital Information
  --------------------------
    NSO        =       302
    NMO        =       302
    NRI        =       904
    NOCC A     =        18
    NOCC B     =        18
    FOCC A     =         5
    FOCC B     =         5
    NVIR A     =       284
    NVIR B     =       284

    Elst10,r            =     0.000044043526 [Eh]
    Exch10              =     0.000000000000 [Eh]
    Exch10 (S^2)        =     0.000000000000 [Eh]

    Iter     Energy [mEh]          dE [mEh]         Residual      Time [s]
       1      -0.00004863       0.000048626       0.072476680             0
       2      -0.00004458      -0.000004041       0.019272589             0
       3      -0.00004759       0.000003006       0.008590166             0
       4      -0.00004886       0.000001268       0.001642779             0
       5      -0.00004874      -0.000000119       0.000648547             0
       6      -0.00004871      -0.000000032       0.000206040             0
       7      -0.00004871       0.000000005       0.000072312             1
       8      -0.00004872       0.000000003       0.000027279             1
       9      -0.00004872      -0.000000000       0.000013607             1
      10      -0.00004872      -0.000000001       0.000003028             1
      11      -0.00004872       0.000000000       0.000000998             1

    CHF Iterations converged


    Iter     Energy [mEh]          dE [mEh]         Residual      Time [s]
       1      -0.00004863       0.000048626       0.072476680             0
       2      -0.00004458      -0.000004041       0.019272589             0
       3      -0.00004759       0.000003006       0.008590166             0
       4      -0.00004886       0.000001268       0.001642779             1
       5      -0.00004874      -0.000000119       0.000648547             1
       6      -0.00004871      -0.000000032       0.000206040             1
       7      -0.00004871       0.000000005       0.000072312             1
       8      -0.00004872       0.000000003       0.000027279             1
       9      -0.00004872      -0.000000000       0.000013607             1
      10      -0.00004872      -0.000000001       0.000003028             1
      11      -0.00004872       0.000000000       0.000000998             1

    CHF Iterations converged

    Ind20,r (A<-B)      =    -0.000000048716 [Eh]
    Ind20,r (B<-A)      =    -0.000000048716 [Eh]
    Ind20,r             =    -0.000000097432 [Eh]
    Exch-Ind20,r (A<-B) =     0.000000000000 [Eh]
    Exch-Ind20,r (B<-A) =     0.000000000000 [Eh]
    Exch-Ind20,r        =     0.000000000000 [Eh]
    Disp20              =    -0.000000370276 [Eh]
    Disp20 (SS)         =    -0.000000185138 [Eh]
    Disp20 (OS)         =    -0.000000185138 [Eh]
    Exch-Disp20         =     0.000000000000 [Eh]
    Exch-Disp20 (SS)    =     0.000000000000 [Eh]
    Exch-Disp20 (OS)    =     0.000000000000 [Eh]

    SAPT Results
  --------------------------------------------------------------------------------------------------------
    Electrostatics                  0.04404353 [mEh]       0.02763773 [kcal/mol]       0.11563626 [kJ/mol]
      Elst10,r                      0.04404353 [mEh]       0.02763773 [kcal/mol]       0.11563626 [kJ/mol]

    Exchange                        0.00000000 [mEh]       0.00000000 [kcal/mol]       0.00000000 [kJ/mol]
      Exch10                        0.00000000 [mEh]       0.00000000 [kcal/mol]       0.00000000 [kJ/mol]
      Exch10(S^2)                   0.00000000 [mEh]       0.00000000 [kcal/mol]       0.00000000 [kJ/mol]

    Induction                      -0.00010050 [mEh]      -0.00006307 [kcal/mol]      -0.00026387 [kJ/mol]
      Ind20,r                      -0.00009743 [mEh]      -0.00006114 [kcal/mol]      -0.00025581 [kJ/mol]
      Exch-Ind20,r                  0.00000000 [mEh]       0.00000000 [kcal/mol]       0.00000000 [kJ/mol]
      delta HF,r (2)               -0.00000307 [mEh]      -0.00000193 [kcal/mol]      -0.00000806 [kJ/mol]

    Dispersion                     -0.00037028 [mEh]      -0.00023235 [kcal/mol]      -0.00097216 [kJ/mol]
      Disp20                       -0.00037028 [mEh]      -0.00023235 [kcal/mol]      -0.00097216 [kJ/mol]
      Exch-Disp20                   0.00000000 [mEh]       0.00000000 [kcal/mol]       0.00000000 [kJ/mol]
      Disp20 (SS)                  -0.00018514 [mEh]      -0.00011618 [kcal/mol]      -0.00048608 [kJ/mol]
      Disp20 (OS)                  -0.00018514 [mEh]      -0.00011618 [kcal/mol]      -0.00048608 [kJ/mol]
      Exch-Disp20 (SS)              0.00000000 [mEh]       0.00000000 [kcal/mol]       0.00000000 [kJ/mol]
      Exch-Disp20 (OS)              0.00000000 [mEh]       0.00000000 [kcal/mol]       0.00000000 [kJ/mol]

  Total HF                          0.04394302 [mEh]       0.02757466 [kcal/mol]       0.11537240 [kJ/mol]
  Total SAPT0                       0.04357275 [mEh]       0.02734231 [kcal/mol]       0.11440024 [kJ/mol]

  Special recipe for scaled SAPT0 (see Manual):
    Electrostatics sSAPT0           0.04404353 [mEh]       0.02763773 [kcal/mol]       0.11563626 [kJ/mol]
    Exchange sSAPT0                 0.00000000 [mEh]       0.00000000 [kcal/mol]       0.00000000 [kJ/mol]
    Induction sSAPT0               -0.00010050 [mEh]      -0.00006307 [kcal/mol]      -0.00026387 [kJ/mol]
    Dispersion sSAPT0              -0.00037028 [mEh]      -0.00023235 [kcal/mol]      -0.00097216 [kJ/mol]
  Total sSAPT0                      0.04357275 [mEh]       0.02734231 [kcal/mol]       0.11440024 [kJ/mol]
  --------------------------------------------------------------------------------------------------------

*** tstop() called on ds1 at Tue Sep 14 16:25:12 2021
Module time:
	user time   =      44.10 seconds =       0.73 minutes
	system time =       3.79 seconds =       0.06 minutes
	total time  =          9 seconds =       0.15 minutes
Total time:
	user time   =      99.16 seconds =       1.65 minutes
	system time =       5.15 seconds =       0.09 minutes
	total time  =         21 seconds =       0.35 minutes


Warning! sapt0 does not have an associated derived wavefunction.The returned wavefunction is the dimer SCF wavefunction.


    Psi4 stopped on: Tuesday, 14 September 2021 04:25PM
    Psi4 wall time for execution: 0:00:21.25

*** Psi4 exiting successfully. Buy a developer a beer!
