
    -----------------------------------------------------------------------
          Psi4: An Open-Source Ab Initio Electronic Structure Package
                               Psi4 1.4rc3

                         Git: Rev {HEAD} 080dba6


    D. G. A. Smith, L. A. Burns, A. C. Simmonett, R. M. Parrish,
    M. C. Schieber, R. Galvelis, P. Kraus, H. Kruse, R. Di Remigio,
    A. Alenaizan, A. M. James, S. Lehtola, J. P. Misiewicz, M. Scheurer,
    R. A. Shaw, J. B. Schriber, Y. Xie, Z. L. Glick, D. A. Sirianni,
    J. S. O'Brien, J. M. Waldrop, A. Kumar, E. G. Hohenstein,
    B. P. Pritchard, B. R. Brooks, H. F. Schaefer III, A. Yu. Sokolov,
    K. Patkowski, A. E. DePrince III, U. Bozkaya, R. A. King,
    F. A. Evangelista, J. M. Turney, T. D. Crawford, C. D. Sherrill,
    J. Chem. Phys. 152(18) 184108 (2020). https://doi.org/10.1063/5.0006002

                            Additional Code Authors
    E. T. Seidl, C. L. Janssen, E. F. Valeev, M. L. Leininger,
    J. F. Gonthier, R. M. Richard, H. R. McAlexander, M. Saitow, X. Wang,
    P. Verma, and M. H. Lechner

             Previous Authors, Complete List of Code Contributors,
                       and Citations for Specific Modules
    https://github.com/psi4/psi4/blob/master/codemeta.json
    https://github.com/psi4/psi4/graphs/contributors
    http://psicode.org/psi4manual/master/introduction.html#citing-psifour

    -----------------------------------------------------------------------


    Psi4 started on: Tuesday, 14 September 2021 05:32PM

    Process ID: 3430
    Host:       ds1
    PSIDATADIR: /theoryfs2/ds/csargent/miniconda3/envs/cle/share/psi4
    Memory:     500.0 MiB
    Threads:    6

  ==> Input File <==

--------------------------------------------------------------------------
# PSI4 file produced by CrystaLattE

# Generated from:               imidazole.xyz
# Psithon input for N-mer:      2mer-0+444
# Number of atoms per monomer:  [9, 9]
# Number of replicas:           2
# COM priority:                 1.331267844365e-05
# Minimum COM separations:      22.328
# Separation priority:          2.059155153448e-05
# Minimum monomer separations:  19.307
# Cutoff priority:              5.643979506670e-07
# Nuclear repulsion energy:     358.91771516935125

memory 7 GB

molecule Dimer_0_444 {
  N           -4.29309621      -3.06837431       5.30516231
  N           -2.15847371      -2.92627296       1.72037448
  H           -0.02545587      -6.35903575       2.22046452
  H           -2.68566968      -6.53260241       6.61445954
  H           -4.74388423      -0.00609006       2.75615968
  H           -1.41045540      -2.24723147       0.00000000
  C           -1.43737991      -5.07504848       2.94065891
  C           -2.76900782      -5.14609916       5.13522880
  C           -3.85955036      -1.77728198       3.21093411
--
  N           33.32783853     -13.21847128     -10.87898141
  N           35.46246103     -13.07636992     -14.46376924
  H           37.59547888     -16.50913271     -13.96367920
  H           34.93526506     -16.68269937      -9.56968418
  H           32.87705052     -10.15618702     -13.42798405
  H           36.21047934     -12.39732843     -16.18414372
  C           36.18355483     -15.22514545     -13.24348481
  C           34.85192692     -15.29619613     -11.04891492
  C           33.76138439     -11.92737894     -12.97320961
units = au
no_com
no_reorient
}

set {
  e_convergence 10
  d_convergence 10
  scf_type df
  mp2_type df
  cc_type df
  freeze_core true
}

energy('sapt0/aug-cc-pvdz')

--------------------------------------------------------------------------

  Memory set to   6.519 GiB by Python driver.

Scratch directory: /scratch/csargent/psi4.31446.79897/

Scratch directory: /scratch/csargent/psi4.31446.79897/

  //>>>>>>>>>>>>>>>>>>>>>>>>>>>>>>>>>>>//
  //              Dimer HF             //
  //<<<<<<<<<<<<<<<<<<<<<<<<<<<<<<<<<<<//


*** tstart() called on ds1
*** at Tue Sep 14 17:32:22 2021

   => Loading Basis Set <=

    Name: AUG-CC-PVDZ
    Role: ORBITAL
    Keyword: BASIS
    atoms 1-2, 10-11 entry N          line   218 file /theoryfs2/ds/csargent/miniconda3/envs/cle/share/psi4/basis/aug-cc-pvdz.gbs
    atoms 3-6, 12-15 entry H          line    40 file /theoryfs2/ds/csargent/miniconda3/envs/cle/share/psi4/basis/aug-cc-pvdz.gbs
    atoms 7-9, 16-18 entry C          line   182 file /theoryfs2/ds/csargent/miniconda3/envs/cle/share/psi4/basis/aug-cc-pvdz.gbs


         ---------------------------------------------------------
                                   SCF
               by Justin Turney, Rob Parrish, Andy Simmonett
                          and Daniel G. A. Smith
                              RHF Reference
                        6 Threads,   6675 MiB Core
         ---------------------------------------------------------

  ==> Geometry <==

    Molecular point group: c1
    Full point group: C1

    Geometry (in Bohr), charge = 0, multiplicity = 1:

       Center              X                  Y                   Z               Mass
    ------------   -----------------  -----------------  -----------------  -----------------
         N           -4.293096210000    -3.068374310000     5.305162310000    14.003074004430
         N           -2.158473710000    -2.926272960000     1.720374480000    14.003074004430
         H           -0.025455870000    -6.359035750000     2.220464520000     1.007825032230
         H           -2.685669680000    -6.532602410000     6.614459540000     1.007825032230
         H           -4.743884230000    -0.006090060000     2.756159680000     1.007825032230
         H           -1.410455400000    -2.247231470000     0.000000000000     1.007825032230
         C           -1.437379910000    -5.075048480000     2.940658910000    12.000000000000
         C           -2.769007820000    -5.146099160000     5.135228800000    12.000000000000
         C           -3.859550360000    -1.777281980000     3.210934110000    12.000000000000
         N           33.327838530000   -13.218471280000   -10.878981410000    14.003074004430
         N           35.462461030000   -13.076369920000   -14.463769240000    14.003074004430
         H           37.595478880000   -16.509132710000   -13.963679200000     1.007825032230
         H           34.935265060000   -16.682699370000    -9.569684180000     1.007825032230
         H           32.877050520000   -10.156187020000   -13.427984050000     1.007825032230
         H           36.210479340000   -12.397328430000   -16.184143720000     1.007825032230
         C           36.183554830000   -15.225145450000   -13.243484810000    12.000000000000
         C           34.851926920000   -15.296196130000   -11.048914920000    12.000000000000
         C           33.761384390000   -11.927378940000   -12.973209610000    12.000000000000

  Running in c1 symmetry.

  Rotational constants: A =      0.02596  B =      0.00057  C =      0.00055 [cm^-1]
  Rotational constants: A =    778.31352  B =     16.94682  C =     16.60537 [MHz]
  Nuclear repulsion =  358.917715222354673

  Charge       = 0
  Multiplicity = 1
  Electrons    = 72
  Nalpha       = 36
  Nbeta        = 36

  ==> Algorithm <==

  SCF Algorithm Type is DF.
  DIIS enabled.
  MOM disabled.
  Fractional occupation disabled.
  Guess Type is SAD.
  Energy threshold   = 1.00e-10
  Density threshold  = 1.00e-10
  Integral threshold = 1.00e-12

  ==> Primary Basis <==

  Basis Set: AUG-CC-PVDZ
    Blend: AUG-CC-PVDZ
    Number of shells: 130
    Number of basis functions: 302
    Number of Cartesian functions: 322
    Spherical Harmonics?: true
    Max angular momentum: 2

   => Loading Basis Set <=

    Name: (AUG-CC-PVDZ AUX)
    Role: JKFIT
    Keyword: DF_BASIS_SCF
    atoms 1-2, 10-11 entry N          line   212 file /theoryfs2/ds/csargent/miniconda3/envs/cle/share/psi4/basis/aug-cc-pvdz-jkfit.gbs
    atoms 3-6, 12-15 entry H          line    70 file /theoryfs2/ds/csargent/miniconda3/envs/cle/share/psi4/basis/aug-cc-pvdz-jkfit.gbs
    atoms 7-9, 16-18 entry C          line   154 file /theoryfs2/ds/csargent/miniconda3/envs/cle/share/psi4/basis/aug-cc-pvdz-jkfit.gbs

  ==> Integral Setup <==

  ==> DiskDFJK: Density-Fitted J/K Matrices <==

    J tasked:                  Yes
    K tasked:                  Yes
    wK tasked:                  No
    OpenMP threads:              6
    Integrals threads:           6
    Memory [MiB]:             5006
    Algorithm:                Core
    Integral Cache:           SAVE
    Schwarz Cutoff:          1E-12
    Fitting Condition:       1E-10

   => Auxiliary Basis Set <=

  Basis Set: (AUG-CC-PVDZ AUX)
    Blend: AUG-CC-PVDZ-JKFIT
    Number of shells: 376
    Number of basis functions: 1116
    Number of Cartesian functions: 1290
    Spherical Harmonics?: true
    Max angular momentum: 3

  Minimum eigenvalue in the overlap matrix is 2.1837062916E-05.
  Reciprocal condition number of the overlap matrix is 1.8394514067E-06.
    Using symmetric orthogonalization.

  ==> Pre-Iterations <==

  SCF Guess: Superposition of Atomic Densities via on-the-fly atomic UHF (no occupation information).

   -------------------------
    Irrep   Nso     Nmo
   -------------------------
     A        302     302
   -------------------------
    Total     302     302
   -------------------------

  ==> Iterations <==

                           Total Energy        Delta E     RMS |[F,P]|

   @DF-RHF iter SAD:  -449.11714338658618   -4.49117e+02   0.00000e+00
   @DF-RHF iter   1:  -449.39617804424881   -2.79035e-01   2.30604e-03 DIIS
   @DF-RHF iter   2:  -449.61067985935631   -2.14502e-01   1.31141e-03 DIIS
   @DF-RHF iter   3:  -449.68340111234335   -7.27213e-02   2.46043e-04 DIIS
   @DF-RHF iter   4:  -449.68677069112056   -3.36958e-03   1.12951e-04 DIIS
   @DF-RHF iter   5:  -449.68737339857864   -6.02707e-04   1.78809e-05 DIIS
   @DF-RHF iter   6:  -449.68740806095889   -3.46624e-05   7.94528e-06 DIIS
   @DF-RHF iter   7:  -449.68741423640739   -6.17545e-06   3.10458e-06 DIIS
   @DF-RHF iter   8:  -449.68741570095801   -1.46455e-06   1.09988e-06 DIIS
   @DF-RHF iter   9:  -449.68741592271107   -2.21753e-07   2.65905e-07 DIIS
   @DF-RHF iter  10:  -449.68741593379025   -1.10792e-08   1.03736e-07 DIIS
   @DF-RHF iter  11:  -449.68741593544536   -1.65511e-09   4.62593e-08 DIIS
   @DF-RHF iter  12:  -449.68741593574958   -3.04226e-10   1.37403e-08 DIIS
   @DF-RHF iter  13:  -449.68741593577687   -2.72848e-11   5.07724e-09 DIIS
   @DF-RHF iter  14:  -449.68741593577920   -2.33058e-12   2.24108e-09 DIIS
   @DF-RHF iter  15:  -449.68741593577960   -3.97904e-13   7.46236e-10 DIIS
   @DF-RHF iter  16:  -449.68741593578005   -4.54747e-13   3.31689e-10 DIIS
   @DF-RHF iter  17:  -449.68741593578056   -5.11591e-13   6.66701e-11 DIIS
  Energy and wave function converged.


  ==> Post-Iterations <==

    Orbital Energies [Eh]
    ---------------------

    Doubly Occupied:

       1A    -15.637713     2A    -15.636369     3A    -15.551880
       4A    -15.550535     5A    -11.301576     6A    -11.300229
       7A    -11.263786     8A    -11.262435     9A    -11.246278
      10A    -11.244932    11A     -1.353512    12A     -1.352166
      13A     -1.169748    14A     -1.168403    15A     -1.012736
      16A     -1.011389    17A     -0.825034    18A     -0.823689
      19A     -0.804368    20A     -0.803022    21A     -0.761311
      22A     -0.759961    23A     -0.610737    24A     -0.609393
      25A     -0.604601    26A     -0.603256    27A     -0.602551
      28A     -0.601196    29A     -0.571586    30A     -0.570243
      31A     -0.436149    32A     -0.434803    33A     -0.401115
      34A     -0.399771    35A     -0.321321    36A     -0.319972

    Virtual:

      37A      0.024796    38A      0.026134    39A      0.040969
      40A      0.042371    41A      0.049372    42A      0.050686
      43A      0.061251    44A      0.062616    45A      0.088434
      46A      0.089777    47A      0.100697    48A      0.102061
      49A      0.120170    50A      0.121517    51A      0.124984
      52A      0.126337    53A      0.132893    54A      0.133159
      55A      0.134248    56A      0.134504    57A      0.140313
      58A      0.141649    59A      0.155946    60A      0.157339
      61A      0.157981    62A      0.159331    63A      0.171410
      64A      0.172712    65A      0.177548    66A      0.178890
      67A      0.186547    68A      0.187908    69A      0.210881
      70A      0.212225    71A      0.219634    72A      0.220983
      73A      0.231704    74A      0.233048    75A      0.240784
      76A      0.242134    77A      0.260971    78A      0.262335
      79A      0.267104    80A      0.268451    81A      0.277231
      82A      0.278568    83A      0.301097    84A      0.302445
      85A      0.313731    86A      0.315080    87A      0.337577
      88A      0.338921    89A      0.360883    90A      0.362242
      91A      0.370114    92A      0.371458    93A      0.379184
      94A      0.380521    95A      0.387657    96A      0.389024
      97A      0.396472    98A      0.397834    99A      0.416375
     100A      0.417709   101A      0.428342   102A      0.429681
     103A      0.451410   104A      0.452761   105A      0.465704
     106A      0.467037   107A      0.480589   108A      0.481949
     109A      0.485667   110A      0.487018   111A      0.487515
     112A      0.488862   113A      0.551064   114A      0.552405
     115A      0.555755   116A      0.557110   117A      0.567640
     118A      0.568998   119A      0.575810   120A      0.577153
     121A      0.593616   122A      0.594965   123A      0.598316
     124A      0.599667   125A      0.615440   126A      0.616783
     127A      0.635919   128A      0.637271   129A      0.651859
     130A      0.653203   131A      0.668645   132A      0.670000
     133A      0.670702   134A      0.672046   135A      0.677539
     136A      0.678879   137A      0.683259   138A      0.684607
     139A      0.714063   140A      0.715410   141A      0.725129
     142A      0.726483   143A      0.740596   144A      0.741941
     145A      0.762054   146A      0.763403   147A      0.766749
     148A      0.768099   149A      0.790295   150A      0.791642
     151A      0.792934   152A      0.794278   153A      0.809108
     154A      0.810453   155A      0.859758   156A      0.861101
     157A      0.870788   158A      0.872134   159A      0.885113
     160A      0.886463   161A      0.889214   162A      0.890566
     163A      0.953710   164A      0.955054   165A      0.976316
     166A      0.977660   167A      0.997707   168A      0.999053
     169A      1.010040   170A      1.011385   171A      1.016765
     172A      1.018111   173A      1.030029   174A      1.031377
     175A      1.076691   176A      1.078038   177A      1.083898
     178A      1.085244   179A      1.126345   180A      1.127692
     181A      1.139852   182A      1.141196   183A      1.148924
     184A      1.150271   185A      1.166528   186A      1.167874
     187A      1.216794   188A      1.218139   189A      1.260097
     190A      1.261457   191A      1.301904   192A      1.303248
     193A      1.384379   194A      1.385722   195A      1.397489
     196A      1.398838   197A      1.450495   198A      1.451841
     199A      1.502638   200A      1.503984   201A      1.517770
     202A      1.519114   203A      1.573498   204A      1.573646
     205A      1.574846   206A      1.574992   207A      1.595744
     208A      1.597094   209A      1.651513   210A      1.652858
     211A      1.670881   212A      1.672230   213A      1.704660
     214A      1.706009   215A      1.723804   216A      1.725150
     217A      1.782013   218A      1.783366   219A      1.798436
     220A      1.799787   221A      1.806436   222A      1.807779
     223A      1.864300   224A      1.865647   225A      1.880814
     226A      1.882162   227A      1.923736   228A      1.925082
     229A      1.964341   230A      1.965687   231A      2.021375
     232A      2.022722   233A      2.024794   234A      2.026140
     235A      2.072343   236A      2.073688   237A      2.106416
     238A      2.107767   239A      2.126131   240A      2.127479
     241A      2.135335   242A      2.136684   243A      2.168036
     244A      2.169384   245A      2.178175   246A      2.179522
     247A      2.266440   248A      2.267783   249A      2.275309
     250A      2.276653   251A      2.300264   252A      2.301608
     253A      2.331421   254A      2.332766   255A      2.417133
     256A      2.418482   257A      2.496276   258A      2.497622
     259A      2.513377   260A      2.514721   261A      2.544697
     262A      2.546040   263A      2.585108   264A      2.586459
     265A      2.633124   266A      2.634473   267A      2.733466
     268A      2.734814   269A      2.746373   270A      2.747719
     271A      2.766454   272A      2.767803   273A      2.793505
     274A      2.794850   275A      2.802793   276A      2.804138
     277A      2.837002   278A      2.838348   279A      2.866560
     280A      2.867904   281A      2.952095   282A      2.953440
     283A      2.980207   284A      2.981552   285A      3.050568
     286A      3.051917   287A      3.069271   288A      3.070620
     289A      3.198511   290A      3.199857   291A      3.208152
     292A      3.209497   293A      3.334164   294A      3.335509
     295A      3.353925   296A      3.355271   297A      3.517905
     298A      3.519251   299A      3.767644   300A      3.768990
     301A      4.108392   302A      4.109741

    Final Occupation by Irrep:
              A
    DOCC [    36 ]

  @DF-RHF Final Energy:  -449.68741593578056

   => Energetics <=

    Nuclear Repulsion Energy =            358.9177152223546727
    One-Electron Energy =               -1319.3547308019258253
    Two-Electron Energy =                 510.7495996437905887
    Total Energy =                       -449.6874159357805638

Computation Completed


Properties will be evaluated at   0.000000,   0.000000,   0.000000 [a0]

Properties computed using the SCF density matrix

  Nuclear Dipole Moment: [e a0]
     X:  1149.5095      Y:  -623.5996      Z:  -325.6476

  Electronic Dipole Moment: [e a0]
     X: -1147.8989      Y:   623.9243      Z:   322.9825

  Dipole Moment: [e a0]
     X:     1.6106      Y:     0.3247      Z:    -2.6652     Total:     3.1309

  Dipole Moment: [D]
     X:     4.0937      Y:     0.8253      Z:    -6.7742     Total:     7.9579


*** tstop() called on ds1 at Tue Sep 14 17:32:27 2021
Module time:
	user time   =      21.96 seconds =       0.37 minutes
	system time =       0.58 seconds =       0.01 minutes
	total time  =          5 seconds =       0.08 minutes
Total time:
	user time   =      21.96 seconds =       0.37 minutes
	system time =       0.58 seconds =       0.01 minutes
	total time  =          5 seconds =       0.08 minutes

  //>>>>>>>>>>>>>>>>>>>>>>>>>>>>>>>>>>>//
  //            Monomer A HF           //
  //<<<<<<<<<<<<<<<<<<<<<<<<<<<<<<<<<<<//


*** tstart() called on ds1
*** at Tue Sep 14 17:32:27 2021

   => Loading Basis Set <=

    Name: AUG-CC-PVDZ
    Role: ORBITAL
    Keyword: BASIS
    atoms 1-2, 10-11 entry N          line   218 file /theoryfs2/ds/csargent/miniconda3/envs/cle/share/psi4/basis/aug-cc-pvdz.gbs
    atoms 3-6, 12-15 entry H          line    40 file /theoryfs2/ds/csargent/miniconda3/envs/cle/share/psi4/basis/aug-cc-pvdz.gbs
    atoms 7-9, 16-18 entry C          line   182 file /theoryfs2/ds/csargent/miniconda3/envs/cle/share/psi4/basis/aug-cc-pvdz.gbs


         ---------------------------------------------------------
                                   SCF
               by Justin Turney, Rob Parrish, Andy Simmonett
                          and Daniel G. A. Smith
                              RHF Reference
                        6 Threads,   6675 MiB Core
         ---------------------------------------------------------

  ==> Geometry <==

    Molecular point group: c1
    Full point group: C1

    Geometry (in Bohr), charge = 0, multiplicity = 1:

       Center              X                  Y                   Z               Mass
    ------------   -----------------  -----------------  -----------------  -----------------
         N           -4.293096210000    -3.068374310000     5.305162310000    14.003074004430
         N           -2.158473710000    -2.926272960000     1.720374480000    14.003074004430
         H           -0.025455870000    -6.359035750000     2.220464520000     1.007825032230
         H           -2.685669680000    -6.532602410000     6.614459540000     1.007825032230
         H           -4.743884230000    -0.006090060000     2.756159680000     1.007825032230
         H           -1.410455400000    -2.247231470000     0.000000000000     1.007825032230
         C           -1.437379910000    -5.075048480000     2.940658910000    12.000000000000
         C           -2.769007820000    -5.146099160000     5.135228800000    12.000000000000
         C           -3.859550360000    -1.777281980000     3.210934110000    12.000000000000
      Gh(N)          33.327838530000   -13.218471280000   -10.878981410000    14.003074004430
      Gh(N)          35.462461030000   -13.076369920000   -14.463769240000    14.003074004430
      Gh(H)          37.595478880000   -16.509132710000   -13.963679200000     1.007825032230
      Gh(H)          34.935265060000   -16.682699370000    -9.569684180000     1.007825032230
      Gh(H)          32.877050520000   -10.156187020000   -13.427984050000     1.007825032230
      Gh(H)          36.210479340000   -12.397328430000   -16.184143720000     1.007825032230
      Gh(C)          36.183554830000   -15.225145450000   -13.243484810000    12.000000000000
      Gh(C)          34.851926920000   -15.296196130000   -11.048914920000    12.000000000000
      Gh(C)          33.761384390000   -11.927378940000   -12.973209610000    12.000000000000

  Running in c1 symmetry.

  Rotational constants: A =      0.02596  B =      0.00057  C =      0.00055 [cm^-1]
  Rotational constants: A =    778.31352  B =     16.94682  C =     16.60537 [MHz]
  Nuclear repulsion =  164.086695994184396

  Charge       = 0
  Multiplicity = 1
  Electrons    = 36
  Nalpha       = 18
  Nbeta        = 18

  ==> Algorithm <==

  SCF Algorithm Type is DF.
  DIIS enabled.
  MOM disabled.
  Fractional occupation disabled.
  Guess Type is SAD.
  Energy threshold   = 1.00e-10
  Density threshold  = 1.00e-10
  Integral threshold = 1.00e-12

  ==> Primary Basis <==

  Basis Set: AUG-CC-PVDZ
    Blend: AUG-CC-PVDZ
    Number of shells: 130
    Number of basis functions: 302
    Number of Cartesian functions: 322
    Spherical Harmonics?: true
    Max angular momentum: 2

   => Loading Basis Set <=

    Name: (AUG-CC-PVDZ AUX)
    Role: JKFIT
    Keyword: DF_BASIS_SCF
    atoms 1-2, 10-11 entry N          line   212 file /theoryfs2/ds/csargent/miniconda3/envs/cle/share/psi4/basis/aug-cc-pvdz-jkfit.gbs
    atoms 3-6, 12-15 entry H          line    70 file /theoryfs2/ds/csargent/miniconda3/envs/cle/share/psi4/basis/aug-cc-pvdz-jkfit.gbs
    atoms 7-9, 16-18 entry C          line   154 file /theoryfs2/ds/csargent/miniconda3/envs/cle/share/psi4/basis/aug-cc-pvdz-jkfit.gbs

  ==> Integral Setup <==

  ==> DiskDFJK: Density-Fitted J/K Matrices <==

    J tasked:                  Yes
    K tasked:                  Yes
    wK tasked:                  No
    OpenMP threads:              6
    Integrals threads:           6
    Memory [MiB]:             5006
    Algorithm:                Core
    Integral Cache:           LOAD
    Schwarz Cutoff:          1E-12
    Fitting Condition:       1E-10

   => Auxiliary Basis Set <=

  Basis Set: (AUG-CC-PVDZ AUX)
    Blend: AUG-CC-PVDZ-JKFIT
    Number of shells: 376
    Number of basis functions: 1116
    Number of Cartesian functions: 1290
    Spherical Harmonics?: true
    Max angular momentum: 3

  Minimum eigenvalue in the overlap matrix is 2.1837062916E-05.
  Reciprocal condition number of the overlap matrix is 1.8394514067E-06.
    Using symmetric orthogonalization.

  ==> Pre-Iterations <==

  SCF Guess: Superposition of Atomic Densities via on-the-fly atomic UHF (no occupation information).

   -------------------------
    Irrep   Nso     Nmo
   -------------------------
     A        302     302
   -------------------------
    Total     302     302
   -------------------------

  ==> Iterations <==

                           Total Energy        Delta E     RMS |[F,P]|

   @DF-RHF iter SAD:  -224.55857169473603   -2.24559e+02   0.00000e+00
   @DF-RHF iter   1:  -224.69806464771762   -1.39493e-01   1.63067e-03 DIIS
   @DF-RHF iter   2:  -224.80532026603404   -1.07256e-01   9.27384e-04 DIIS
   @DF-RHF iter   3:  -224.84168816994273   -3.63679e-02   1.74019e-04 DIIS
   @DF-RHF iter   4:  -224.84337342200965   -1.68525e-03   7.98972e-05 DIIS
   @DF-RHF iter   5:  -224.84367500272251   -3.01581e-04   1.26452e-05 DIIS
   @DF-RHF iter   6:  -224.84369233975590   -1.73370e-05   5.61871e-06 DIIS
   @DF-RHF iter   7:  -224.84369542782591   -3.08807e-06   2.19503e-06 DIIS
   @DF-RHF iter   8:  -224.84369615974441   -7.31919e-07   7.77587e-07 DIIS
   @DF-RHF iter   9:  -224.84369627053812   -1.10794e-07   1.87961e-07 DIIS
   @DF-RHF iter  10:  -224.84369627607410   -5.53598e-09   7.33125e-08 DIIS
   @DF-RHF iter  11:  -224.84369627690060   -8.26503e-10   3.26918e-08 DIIS
   @DF-RHF iter  12:  -224.84369627705237   -1.51772e-10   9.70884e-09 DIIS
   @DF-RHF iter  13:  -224.84369627706582   -1.34435e-11   3.58840e-09 DIIS
   @DF-RHF iter  14:  -224.84369627706707   -1.25056e-12   1.58275e-09 DIIS
   @DF-RHF iter  15:  -224.84369627706758   -5.11591e-13   5.27556e-10 DIIS
   @DF-RHF iter  16:  -224.84369627706801   -4.26326e-13   2.34517e-10 DIIS
   @DF-RHF iter  17:  -224.84369627706778    2.27374e-13   4.71136e-11 DIIS
  Energy and wave function converged.


  ==> Post-Iterations <==

    Orbital Energies [Eh]
    ---------------------

    Doubly Occupied:

       1A    -15.637071     2A    -15.551216     3A    -11.300916
       4A    -11.263160     5A    -11.245653     6A     -1.352867
       7A     -1.169098     8A     -1.012098     9A     -0.824390
      10A     -0.803731    11A     -0.760666    12A     -0.610096
      13A     -0.603958    14A     -0.601922    15A     -0.570942
      16A     -0.435483    17A     -0.400464    18A     -0.320685

    Virtual:

      19A      0.022040    20A      0.025388    21A      0.039539
      22A      0.041580    23A      0.043112    24A      0.049997
      25A      0.061864    26A      0.067191    27A      0.075989
      28A      0.085632    29A      0.089096    30A      0.097006
      31A      0.101397    32A      0.120831    33A      0.124095
      34A      0.124517    35A      0.125577    36A      0.126333
      37A      0.126740    38A      0.133472    39A      0.133511
      40A      0.133773    41A      0.137628    42A      0.140942
      43A      0.156240    44A      0.156500    45A      0.158699
      46A      0.171988    47A      0.178189    48A      0.187224
      49A      0.191654    50A      0.207237    51A      0.208846
      52A      0.211559    53A      0.211935    54A      0.219716
      55A      0.220268    56A      0.222020    57A      0.232359
      58A      0.232576    59A      0.241408    60A      0.261605
      61A      0.267803    62A      0.271599    63A      0.277911
      64A      0.298803    65A      0.301746    66A      0.305910
      67A      0.314442    68A      0.318718    69A      0.338197
      70A      0.359605    71A      0.361488    72A      0.370745
      73A      0.375029    74A      0.379800    75A      0.388291
      76A      0.392901    77A      0.397097    78A      0.417031
      79A      0.426926    80A      0.429000    81A      0.434734
      82A      0.439848    83A      0.448521    84A      0.451632
      85A      0.452059    86A      0.466350    87A      0.467646
      88A      0.480507    89A      0.481229    90A      0.486283
      91A      0.488151    92A      0.516824    93A      0.520075
      94A      0.535431    95A      0.537750    96A      0.542626
      97A      0.551710    98A      0.555312    99A      0.556382
     100A      0.568280   101A      0.576474   102A      0.578879
     103A      0.587040   104A      0.594249   105A      0.598939
     106A      0.605966   107A      0.611507   108A      0.616080
     109A      0.617829   110A      0.636538   111A      0.639283
     112A      0.652504   113A      0.669282   114A      0.671337
     115A      0.677139   116A      0.678185   117A      0.683281
     118A      0.683874   119A      0.710666   120A      0.714698
     121A      0.725758   122A      0.735623   123A      0.741238
     124A      0.755622   125A      0.762698   126A      0.767400
     127A      0.790929   128A      0.793606   129A      0.797735
     130A      0.809747   131A      0.809983   132A      0.811921
     133A      0.822805   134A      0.836114   135A      0.859135
     136A      0.860398   137A      0.871425   138A      0.885765
     139A      0.886044   140A      0.889823   141A      0.909247
     142A      0.919150   143A      0.926410   144A      0.954351
     145A      0.968238   146A      0.976964   147A      0.991323
     148A      0.998360   149A      1.010706   150A      1.014951
     151A      1.017404   152A      1.030676   153A      1.058537
     154A      1.077353   155A      1.078128   156A      1.084552
     157A      1.103165   158A      1.115543   159A      1.126983
     160A      1.131995   161A      1.140497   162A      1.149565
     163A      1.167170   164A      1.170407   165A      1.173566
     166A      1.197063   167A      1.210096   168A      1.217445
     169A      1.260721   170A      1.277520   171A      1.290149
     172A      1.296495   173A      1.302539   174A      1.312072
     175A      1.317623   176A      1.347083   177A      1.383632
     178A      1.385028   179A      1.398145   180A      1.451143
     181A      1.494435   182A      1.503288   183A      1.515350
     184A      1.518410   185A      1.540872   186A      1.574127
     187A      1.574285   188A      1.596381   189A      1.652159
     190A      1.660469   191A      1.671505   192A      1.705286
     193A      1.724477   194A      1.782643   195A      1.799067
     196A      1.807063   197A      1.864950   198A      1.881477
     199A      1.924391   200A      1.964987   201A      2.022005
     202A      2.025429   203A      2.039253   204A      2.072981
     205A      2.100603   206A      2.107054   207A      2.118969
     208A      2.126759   209A      2.130952   210A      2.135965
     211A      2.149075   212A      2.168670   213A      2.178815
     214A      2.184731   215A      2.229332   216A      2.252344
     217A      2.267082   218A      2.275963   219A      2.300924
     220A      2.308284   221A      2.326752   222A      2.332072
     223A      2.376410   224A      2.405248   225A      2.413023
     226A      2.417758   227A      2.455397   228A      2.470455
     229A      2.493575   230A      2.496919   231A      2.514025
     232A      2.525484   233A      2.545102   234A      2.545345
     235A      2.576546   236A      2.585743   237A      2.599543
     238A      2.633765   239A      2.695923   240A      2.734093
     241A      2.747025   242A      2.767089   243A      2.790012
     244A      2.794149   245A      2.803444   246A      2.828566
     247A      2.837641   248A      2.867213   249A      2.895444
     250A      2.933011   251A      2.949143   252A      2.952738
     253A      2.980862   254A      3.043212   255A      3.051201
     256A      3.069910   257A      3.075920   258A      3.131609
     259A      3.159356   260A      3.182685   261A      3.199163
     262A      3.208795   263A      3.213121   264A      3.334816
     265A      3.340599   266A      3.354489   267A      3.354572
     268A      3.362658   269A      3.458408   270A      3.494174
     271A      3.518552   272A      3.569354   273A      3.608651
     274A      3.706994   275A      3.726480   276A      3.768294
     277A      3.778145   278A      3.797952   279A      3.857718
     280A      3.870471   281A      4.003636   282A      4.109022
     283A      4.212513   284A      4.636516   285A      4.638577
     286A      4.695742   287A      4.771565   288A      4.879847
     289A      5.021190   290A      5.254435   291A      5.372959
     292A      5.494593   293A      5.610168   294A      5.716066
     295A      5.883686   296A      6.089482   297A      6.197923
     298A     18.255289   299A     18.589866   300A     19.300249
     301A     25.311671   302A     25.453052

    Final Occupation by Irrep:
              A
    DOCC [    18 ]

  @DF-RHF Final Energy:  -224.84369627706778

   => Energetics <=

    Nuclear Repulsion Energy =            164.0866959941843959
    One-Electron Energy =                -628.9319562974819746
    Two-Electron Energy =                 240.0015640262297723
    Total Energy =                       -224.8436962770677781

Computation Completed


Properties will be evaluated at   0.000000,   0.000000,   0.000000 [a0]

Properties computed using the SCF density matrix

  Nuclear Dipole Moment: [e a0]
     X:  -102.4221      Y:  -129.0981      Z:   128.4908

  Electronic Dipole Moment: [e a0]
     X:   103.2259      Y:   129.2613      Z:  -129.8232

  Dipole Moment: [e a0]
     X:     0.8038      Y:     0.1633      Z:    -1.3324     Total:     1.5646

  Dipole Moment: [D]
     X:     2.0431      Y:     0.4150      Z:    -3.3867     Total:     3.9769


*** tstop() called on ds1 at Tue Sep 14 17:32:31 2021
Module time:
	user time   =      15.77 seconds =       0.26 minutes
	system time =       0.32 seconds =       0.01 minutes
	total time  =          4 seconds =       0.07 minutes
Total time:
	user time   =      37.92 seconds =       0.63 minutes
	system time =       0.91 seconds =       0.02 minutes
	total time  =          9 seconds =       0.15 minutes

  //>>>>>>>>>>>>>>>>>>>>>>>>>>>>>>>>>>>//
  //            Monomer B HF           //
  //<<<<<<<<<<<<<<<<<<<<<<<<<<<<<<<<<<<//


*** tstart() called on ds1
*** at Tue Sep 14 17:32:31 2021

   => Loading Basis Set <=

    Name: AUG-CC-PVDZ
    Role: ORBITAL
    Keyword: BASIS
    atoms 1-2, 10-11 entry N          line   218 file /theoryfs2/ds/csargent/miniconda3/envs/cle/share/psi4/basis/aug-cc-pvdz.gbs
    atoms 3-6, 12-15 entry H          line    40 file /theoryfs2/ds/csargent/miniconda3/envs/cle/share/psi4/basis/aug-cc-pvdz.gbs
    atoms 7-9, 16-18 entry C          line   182 file /theoryfs2/ds/csargent/miniconda3/envs/cle/share/psi4/basis/aug-cc-pvdz.gbs


         ---------------------------------------------------------
                                   SCF
               by Justin Turney, Rob Parrish, Andy Simmonett
                          and Daniel G. A. Smith
                              RHF Reference
                        6 Threads,   6675 MiB Core
         ---------------------------------------------------------

  ==> Geometry <==

    Molecular point group: c1
    Full point group: C1

    Geometry (in Bohr), charge = 0, multiplicity = 1:

       Center              X                  Y                   Z               Mass
    ------------   -----------------  -----------------  -----------------  -----------------
      Gh(N)          -4.293096210000    -3.068374310000     5.305162310000    14.003074004430
      Gh(N)          -2.158473710000    -2.926272960000     1.720374480000    14.003074004430
      Gh(H)          -0.025455870000    -6.359035750000     2.220464520000     1.007825032230
      Gh(H)          -2.685669680000    -6.532602410000     6.614459540000     1.007825032230
      Gh(H)          -4.743884230000    -0.006090060000     2.756159680000     1.007825032230
      Gh(H)          -1.410455400000    -2.247231470000     0.000000000000     1.007825032230
      Gh(C)          -1.437379910000    -5.075048480000     2.940658910000    12.000000000000
      Gh(C)          -2.769007820000    -5.146099160000     5.135228800000    12.000000000000
      Gh(C)          -3.859550360000    -1.777281980000     3.210934110000    12.000000000000
         N           33.327838530000   -13.218471280000   -10.878981410000    14.003074004430
         N           35.462461030000   -13.076369920000   -14.463769240000    14.003074004430
         H           37.595478880000   -16.509132710000   -13.963679200000     1.007825032230
         H           34.935265060000   -16.682699370000    -9.569684180000     1.007825032230
         H           32.877050520000   -10.156187020000   -13.427984050000     1.007825032230
         H           36.210479340000   -12.397328430000   -16.184143720000     1.007825032230
         C           36.183554830000   -15.225145450000   -13.243484810000    12.000000000000
         C           34.851926920000   -15.296196130000   -11.048914920000    12.000000000000
         C           33.761384390000   -11.927378940000   -12.973209610000    12.000000000000

  Running in c1 symmetry.

  Rotational constants: A =      0.02596  B =      0.00057  C =      0.00055 [cm^-1]
  Rotational constants: A =    778.31352  B =     16.94682  C =     16.60537 [MHz]
  Nuclear repulsion =  164.086695909478919

  Charge       = 0
  Multiplicity = 1
  Electrons    = 36
  Nalpha       = 18
  Nbeta        = 18

  ==> Algorithm <==

  SCF Algorithm Type is DF.
  DIIS enabled.
  MOM disabled.
  Fractional occupation disabled.
  Guess Type is SAD.
  Energy threshold   = 1.00e-10
  Density threshold  = 1.00e-10
  Integral threshold = 1.00e-12

  ==> Primary Basis <==

  Basis Set: AUG-CC-PVDZ
    Blend: AUG-CC-PVDZ
    Number of shells: 130
    Number of basis functions: 302
    Number of Cartesian functions: 322
    Spherical Harmonics?: true
    Max angular momentum: 2

   => Loading Basis Set <=

    Name: (AUG-CC-PVDZ AUX)
    Role: JKFIT
    Keyword: DF_BASIS_SCF
    atoms 1-2, 10-11 entry N          line   212 file /theoryfs2/ds/csargent/miniconda3/envs/cle/share/psi4/basis/aug-cc-pvdz-jkfit.gbs
    atoms 3-6, 12-15 entry H          line    70 file /theoryfs2/ds/csargent/miniconda3/envs/cle/share/psi4/basis/aug-cc-pvdz-jkfit.gbs
    atoms 7-9, 16-18 entry C          line   154 file /theoryfs2/ds/csargent/miniconda3/envs/cle/share/psi4/basis/aug-cc-pvdz-jkfit.gbs

  ==> Integral Setup <==

  ==> DiskDFJK: Density-Fitted J/K Matrices <==

    J tasked:                  Yes
    K tasked:                  Yes
    wK tasked:                  No
    OpenMP threads:              6
    Integrals threads:           6
    Memory [MiB]:             5006
    Algorithm:                Core
    Integral Cache:           LOAD
    Schwarz Cutoff:          1E-12
    Fitting Condition:       1E-10

   => Auxiliary Basis Set <=

  Basis Set: (AUG-CC-PVDZ AUX)
    Blend: AUG-CC-PVDZ-JKFIT
    Number of shells: 376
    Number of basis functions: 1116
    Number of Cartesian functions: 1290
    Spherical Harmonics?: true
    Max angular momentum: 3

  Minimum eigenvalue in the overlap matrix is 2.1837062916E-05.
  Reciprocal condition number of the overlap matrix is 1.8394514067E-06.
    Using symmetric orthogonalization.

  ==> Pre-Iterations <==

  SCF Guess: Superposition of Atomic Densities via on-the-fly atomic UHF (no occupation information).

   -------------------------
    Irrep   Nso     Nmo
   -------------------------
     A        302     302
   -------------------------
    Total     302     302
   -------------------------

  ==> Iterations <==

                           Total Energy        Delta E     RMS |[F,P]|

   @DF-RHF iter SAD:  -224.55857168754667   -2.24559e+02   0.00000e+00
   @DF-RHF iter   1:  -224.69806464758457   -1.39493e-01   1.63067e-03 DIIS
   @DF-RHF iter   2:  -224.80532026619915   -1.07256e-01   9.27384e-04 DIIS
   @DF-RHF iter   3:  -224.84168817036468   -3.63679e-02   1.74019e-04 DIIS
   @DF-RHF iter   4:  -224.84337342245925   -1.68525e-03   7.98972e-05 DIIS
   @DF-RHF iter   5:  -224.84367500317657   -3.01581e-04   1.26452e-05 DIIS
   @DF-RHF iter   6:  -224.84369234020932   -1.73370e-05   5.61871e-06 DIIS
   @DF-RHF iter   7:  -224.84369542827864   -3.08807e-06   2.19503e-06 DIIS
   @DF-RHF iter   8:  -224.84369616019742   -7.31919e-07   7.77587e-07 DIIS
   @DF-RHF iter   9:  -224.84369627099090   -1.10793e-07   1.87961e-07 DIIS
   @DF-RHF iter  10:  -224.84369627652706   -5.53615e-09   7.33125e-08 DIIS
   @DF-RHF iter  11:  -224.84369627735319   -8.26134e-10   3.26918e-08 DIIS
   @DF-RHF iter  12:  -224.84369627750536   -1.52170e-10   9.70884e-09 DIIS
   @DF-RHF iter  13:  -224.84369627751852   -1.31593e-11   3.58840e-09 DIIS
   @DF-RHF iter  14:  -224.84369627752011   -1.59162e-12   1.58275e-09 DIIS
   @DF-RHF iter  15:  -224.84369627752065   -5.40012e-13   5.27556e-10 DIIS
   @DF-RHF iter  16:  -224.84369627752062    2.84217e-14   2.34517e-10 DIIS
   @DF-RHF iter  17:  -224.84369627752073   -1.13687e-13   4.71137e-11 DIIS
  Energy and wave function converged.


  ==> Post-Iterations <==

    Orbital Energies [Eh]
    ---------------------

    Doubly Occupied:

       1A    -15.637071     2A    -15.551216     3A    -11.300916
       4A    -11.263160     5A    -11.245653     6A     -1.352867
       7A     -1.169098     8A     -1.012098     9A     -0.824390
      10A     -0.803731    11A     -0.760666    12A     -0.610096
      13A     -0.603958    14A     -0.601922    15A     -0.570942
      16A     -0.435483    17A     -0.400464    18A     -0.320685

    Virtual:

      19A      0.023386    20A      0.025388    21A      0.040885
      22A      0.041580    23A      0.044477    24A      0.049997
      25A      0.061864    26A      0.068553    27A      0.077327
      28A      0.086957    29A      0.089096    30A      0.098373
      31A      0.101397    32A      0.120831    33A      0.125464
      34A      0.125577    35A      0.125828    36A      0.127649
      37A      0.128140    38A      0.133472    39A      0.133773
      40A      0.134852    41A      0.138973    42A      0.140942
      43A      0.156500    44A      0.157606    45A      0.158699
      46A      0.171988    47A      0.178189    48A      0.187224
      49A      0.193008    50A      0.208587    51A      0.210194
      52A      0.211559    53A      0.213267    54A      0.220268
      55A      0.221049    56A      0.223371    57A      0.232359
      58A      0.233903    59A      0.241408    60A      0.261605
      61A      0.267803    62A      0.272968    63A      0.277911
      64A      0.300136    65A      0.301746    66A      0.307263
      67A      0.314442    68A      0.320063    69A      0.338197
      70A      0.360945    71A      0.361488    72A      0.370745
      73A      0.376394    74A      0.379800    75A      0.388291
      76A      0.394244    77A      0.397097    78A      0.417031
      79A      0.428262    80A      0.429000    81A      0.436102
      82A      0.441177    83A      0.449860    84A      0.452059
      85A      0.452979    86A      0.466350    87A      0.469001
      88A      0.481229    89A      0.481846    90A      0.486283
      91A      0.488151    92A      0.518180    93A      0.521431
      94A      0.536776    95A      0.539095    96A      0.543959
      97A      0.551710    98A      0.556382    99A      0.556649
     100A      0.568280   101A      0.576474   102A      0.580241
     103A      0.588387   104A      0.594249   105A      0.598939
     106A      0.607307   107A      0.612848   108A      0.616080
     109A      0.619171   110A      0.636538   111A      0.640629
     112A      0.652504   113A      0.669282   114A      0.671337
     115A      0.678185   116A      0.678506   117A      0.683874
     118A      0.684616   119A      0.712005   120A      0.714698
     121A      0.725758   122A      0.736965   123A      0.741238
     124A      0.756969   125A      0.762698   126A      0.767400
     127A      0.790929   128A      0.793606   129A      0.799081
     130A      0.809747   131A      0.811338   132A      0.813267
     133A      0.824159   134A      0.837455   135A      0.860398
     136A      0.860482   137A      0.871425   138A      0.885765
     139A      0.887394   140A      0.889823   141A      0.910587
     142A      0.920492   143A      0.927755   144A      0.954351
     145A      0.969583   146A      0.976964   147A      0.992671
     148A      0.998360   149A      1.010706   150A      1.016298
     151A      1.017404   152A      1.030676   153A      1.059884
     154A      1.077353   155A      1.079468   156A      1.084552
     157A      1.104507   158A      1.116891   159A      1.126983
     160A      1.133332   161A      1.140497   162A      1.149565
     163A      1.167170   164A      1.171757   165A      1.174906
     166A      1.198405   167A      1.211435   168A      1.217445
     169A      1.260721   170A      1.278862   171A      1.291488
     172A      1.297841   173A      1.302539   174A      1.313417
     175A      1.318966   176A      1.348426   177A      1.384973
     178A      1.385028   179A      1.398145   180A      1.451143
     181A      1.495773   182A      1.503288   183A      1.516695
     184A      1.518410   185A      1.542214   186A      1.574127
     187A      1.574285   188A      1.596381   189A      1.652159
     190A      1.661814   191A      1.671505   192A      1.705286
     193A      1.724477   194A      1.782643   195A      1.799067
     196A      1.807063   197A      1.864950   198A      1.881477
     199A      1.924391   200A      1.964987   201A      2.022005
     202A      2.025429   203A      2.040598   204A      2.072981
     205A      2.101949   206A      2.107054   207A      2.120314
     208A      2.126759   209A      2.132301   210A      2.135965
     211A      2.150422   212A      2.168670   213A      2.178815
     214A      2.186082   215A      2.230688   216A      2.253683
     217A      2.267082   218A      2.275963   219A      2.300924
     220A      2.309633   221A      2.328095   222A      2.332072
     223A      2.377753   224A      2.406587   225A      2.414375
     226A      2.417758   227A      2.456745   228A      2.471795
     229A      2.494926   230A      2.496919   231A      2.514025
     232A      2.526828   233A      2.545345   234A      2.546443
     235A      2.577891   236A      2.585743   237A      2.600889
     238A      2.633765   239A      2.697274   240A      2.734093
     241A      2.747025   242A      2.767089   243A      2.791351
     244A      2.794149   245A      2.803444   246A      2.829910
     247A      2.837641   248A      2.867213   249A      2.896785
     250A      2.934365   251A      2.950488   252A      2.952738
     253A      2.980862   254A      3.044555   255A      3.051201
     256A      3.069910   257A      3.077263   258A      3.132948
     259A      3.160700   260A      3.184026   261A      3.199163
     262A      3.208795   263A      3.214469   264A      3.334816
     265A      3.341943   266A      3.354572   267A      3.355833
     268A      3.364006   269A      3.459751   270A      3.495515
     271A      3.518552   272A      3.570694   273A      3.609992
     274A      3.708335   275A      3.727823   276A      3.768294
     277A      3.779488   278A      3.799294   279A      3.859064
     280A      3.871811   281A      4.004979   282A      4.109022
     283A      4.213854   284A      4.637860   285A      4.639920
     286A      4.697085   287A      4.772906   288A      4.881191
     289A      5.022533   290A      5.255774   291A      5.374301
     292A      5.495934   293A      5.611515   294A      5.717414
     295A      5.885028   296A      6.090823   297A      6.199264
     298A     18.256636   299A     18.591205   300A     19.301597
     301A     25.313010   302A     25.454393

    Final Occupation by Irrep:
              A
    DOCC [    18 ]

  @DF-RHF Final Energy:  -224.84369627752073

   => Energetics <=

    Nuclear Repulsion Energy =            164.0866959094789195
    One-Electron Energy =                -628.9319561291124501
    Two-Electron Energy =                 240.0015639421127958
    Total Energy =                       -224.8436962775207348

Computation Completed


Properties will be evaluated at   0.000000,   0.000000,   0.000000 [a0]

Properties computed using the SCF density matrix

  Nuclear Dipole Moment: [e a0]
     X:  1251.9316      Y:  -494.5016      Z:  -454.1384

  Electronic Dipole Moment: [e a0]
     X: -1251.1278      Y:   494.6648      Z:   452.8060

  Dipole Moment: [e a0]
     X:     0.8038      Y:     0.1633      Z:    -1.3324     Total:     1.5646

  Dipole Moment: [D]
     X:     2.0431      Y:     0.4150      Z:    -3.3867     Total:     3.9769


*** tstop() called on ds1 at Tue Sep 14 17:32:34 2021
Module time:
	user time   =      15.67 seconds =       0.26 minutes
	system time =       0.34 seconds =       0.01 minutes
	total time  =          3 seconds =       0.05 minutes
Total time:
	user time   =      53.78 seconds =       0.90 minutes
	system time =       1.25 seconds =       0.02 minutes
	total time  =         12 seconds =       0.20 minutes
  Constructing Basis Sets for SAPT...

   => Loading Basis Set <=

    Name: (AUG-CC-PVDZ AUX)
    Role: RIFIT
    Keyword: DF_BASIS_SAPT
    atoms 1-2, 10-11 entry N          line   158 file /theoryfs2/ds/csargent/miniconda3/envs/cle/share/psi4/basis/aug-cc-pvdz-ri.gbs
    atoms 3-6, 12-15 entry H          line    30 file /theoryfs2/ds/csargent/miniconda3/envs/cle/share/psi4/basis/aug-cc-pvdz-ri.gbs
    atoms 7-9, 16-18 entry C          line   112 file /theoryfs2/ds/csargent/miniconda3/envs/cle/share/psi4/basis/aug-cc-pvdz-ri.gbs


  //>>>>>>>>>>>>>>>>>>>>>>>>>>>>>>>>>>>//
  //               SAPT0               //
  //<<<<<<<<<<<<<<<<<<<<<<<<<<<<<<<<<<<//


*** tstart() called on ds1
*** at Tue Sep 14 17:32:34 2021

        SAPT0
    Ed Hohenstein
     6 June 2009

      Orbital Information
  --------------------------
    NSO        =       302
    NMO        =       302
    NRI        =       904
    NOCC A     =        18
    NOCC B     =        18
    FOCC A     =         5
    FOCC B     =         5
    NVIR A     =       284
    NVIR B     =       284

    Elst10,r            =    -0.000023325970 [Eh]
    Exch10              =     0.000000000000 [Eh]
    Exch10 (S^2)        =     0.000000000000 [Eh]

    Iter     Energy [mEh]          dE [mEh]         Residual      Time [s]
       1      -0.00003297       0.000032972       0.056467972             0
       2      -0.00003134      -0.000001636       0.016344228             1
       3      -0.00003488       0.000003549       0.006601471             1
       4      -0.00003535       0.000000462       0.002762971             1
       5      -0.00003523      -0.000000115       0.001460395             1
       6      -0.00003516      -0.000000074       0.000405239             1
       7      -0.00003518       0.000000017       0.000126662             1
       8      -0.00003518       0.000000004       0.000043790             1
       9      -0.00003518      -0.000000001       0.000013882             1
      10      -0.00003518      -0.000000001       0.000002715             2
      11      -0.00003518       0.000000000       0.000000957             2

    CHF Iterations converged


    Iter     Energy [mEh]          dE [mEh]         Residual      Time [s]
       1      -0.00002572       0.000025720       0.049528742             0
       2      -0.00002429      -0.000001434       0.013856297             0
       3      -0.00002677       0.000002479       0.005365947             0
       4      -0.00002711       0.000000347       0.001916233             0
       5      -0.00002706      -0.000000049       0.001093177             0
       6      -0.00002701      -0.000000056       0.000323222             0
       7      -0.00002702       0.000000012       0.000094052             1
       8      -0.00002702       0.000000002       0.000028202             1
       9      -0.00002702      -0.000000001       0.000010890             1
      10      -0.00002702      -0.000000000       0.000002735             1
      11      -0.00002702       0.000000000       0.000001100             1
      12      -0.00002702       0.000000000       0.000000362             1

    CHF Iterations converged

    Ind20,r (A<-B)      =    -0.000000035178 [Eh]
    Ind20,r (B<-A)      =    -0.000000027021 [Eh]
    Ind20,r             =    -0.000000062198 [Eh]
    Exch-Ind20,r (A<-B) =     0.000000000000 [Eh]
    Exch-Ind20,r (B<-A) =     0.000000000000 [Eh]
    Exch-Ind20,r        =     0.000000000000 [Eh]
    Disp20              =    -0.000000239355 [Eh]
    Disp20 (SS)         =    -0.000000119677 [Eh]
    Disp20 (OS)         =    -0.000000119677 [Eh]
    Exch-Disp20         =     0.000000000000 [Eh]
    Exch-Disp20 (SS)    =     0.000000000000 [Eh]
    Exch-Disp20 (OS)    =     0.000000000000 [Eh]

    SAPT Results
  --------------------------------------------------------------------------------------------------------
    Electrostatics                 -0.02332597 [mEh]      -0.01463727 [kcal/mol]      -0.06124233 [kJ/mol]
      Elst10,r                     -0.02332597 [mEh]      -0.01463727 [kcal/mol]      -0.06124233 [kJ/mol]

    Exchange                        0.00000000 [mEh]       0.00000000 [kcal/mol]       0.00000000 [kJ/mol]
      Exch10                        0.00000000 [mEh]       0.00000000 [kcal/mol]       0.00000000 [kJ/mol]
      Exch10(S^2)                   0.00000000 [mEh]       0.00000000 [kcal/mol]       0.00000000 [kJ/mol]

    Induction                      -0.00005522 [mEh]      -0.00003465 [kcal/mol]      -0.00014499 [kJ/mol]
      Ind20,r                      -0.00006220 [mEh]      -0.00003903 [kcal/mol]      -0.00016330 [kJ/mol]
      Exch-Ind20,r                  0.00000000 [mEh]       0.00000000 [kcal/mol]       0.00000000 [kJ/mol]
      delta HF,r (2)                0.00000698 [mEh]       0.00000438 [kcal/mol]       0.00001832 [kJ/mol]

    Dispersion                     -0.00023935 [mEh]      -0.00015020 [kcal/mol]      -0.00062843 [kJ/mol]
      Disp20                       -0.00023935 [mEh]      -0.00015020 [kcal/mol]      -0.00062843 [kJ/mol]
      Exch-Disp20                   0.00000000 [mEh]       0.00000000 [kcal/mol]       0.00000000 [kJ/mol]
      Disp20 (SS)                  -0.00011968 [mEh]      -0.00007510 [kcal/mol]      -0.00031421 [kJ/mol]
      Disp20 (OS)                  -0.00011968 [mEh]      -0.00007510 [kcal/mol]      -0.00031421 [kJ/mol]
      Exch-Disp20 (SS)              0.00000000 [mEh]       0.00000000 [kcal/mol]       0.00000000 [kJ/mol]
      Exch-Disp20 (OS)              0.00000000 [mEh]       0.00000000 [kcal/mol]       0.00000000 [kJ/mol]

  Total HF                         -0.02338119 [mEh]      -0.01467192 [kcal/mol]      -0.06138731 [kJ/mol]
  Total SAPT0                      -0.02362055 [mEh]      -0.01482212 [kcal/mol]      -0.06201574 [kJ/mol]

  Special recipe for scaled SAPT0 (see Manual):
    Electrostatics sSAPT0          -0.02332597 [mEh]      -0.01463727 [kcal/mol]      -0.06124233 [kJ/mol]
    Exchange sSAPT0                 0.00000000 [mEh]       0.00000000 [kcal/mol]       0.00000000 [kJ/mol]
    Induction sSAPT0               -0.00005522 [mEh]      -0.00003465 [kcal/mol]      -0.00014499 [kJ/mol]
    Dispersion sSAPT0              -0.00023935 [mEh]      -0.00015020 [kcal/mol]      -0.00062843 [kJ/mol]
  Total sSAPT0                     -0.02362055 [mEh]      -0.01482212 [kcal/mol]      -0.06201574 [kJ/mol]
  --------------------------------------------------------------------------------------------------------

*** tstop() called on ds1 at Tue Sep 14 17:32:44 2021
Module time:
	user time   =      44.25 seconds =       0.74 minutes
	system time =       3.80 seconds =       0.06 minutes
	total time  =         10 seconds =       0.17 minutes
Total time:
	user time   =      99.04 seconds =       1.65 minutes
	system time =       5.08 seconds =       0.08 minutes
	total time  =         22 seconds =       0.37 minutes


Warning! sapt0 does not have an associated derived wavefunction.The returned wavefunction is the dimer SCF wavefunction.


    Psi4 stopped on: Tuesday, 14 September 2021 05:32PM
    Psi4 wall time for execution: 0:00:21.25

*** Psi4 exiting successfully. Buy a developer a beer!
