
    -----------------------------------------------------------------------
          Psi4: An Open-Source Ab Initio Electronic Structure Package
                               Psi4 1.4rc3

                         Git: Rev {HEAD} 080dba6


    D. G. A. Smith, L. A. Burns, A. C. Simmonett, R. M. Parrish,
    M. C. Schieber, R. Galvelis, P. Kraus, H. Kruse, R. Di Remigio,
    A. Alenaizan, A. M. James, S. Lehtola, J. P. Misiewicz, M. Scheurer,
    R. A. Shaw, J. B. Schriber, Y. Xie, Z. L. Glick, D. A. Sirianni,
    J. S. O'Brien, J. M. Waldrop, A. Kumar, E. G. Hohenstein,
    B. P. Pritchard, B. R. Brooks, H. F. Schaefer III, A. Yu. Sokolov,
    K. Patkowski, A. E. DePrince III, U. Bozkaya, R. A. King,
    F. A. Evangelista, J. M. Turney, T. D. Crawford, C. D. Sherrill,
    J. Chem. Phys. 152(18) 184108 (2020). https://doi.org/10.1063/5.0006002

                            Additional Code Authors
    E. T. Seidl, C. L. Janssen, E. F. Valeev, M. L. Leininger,
    J. F. Gonthier, R. M. Richard, H. R. McAlexander, M. Saitow, X. Wang,
    P. Verma, and M. H. Lechner

             Previous Authors, Complete List of Code Contributors,
                       and Citations for Specific Modules
    https://github.com/psi4/psi4/blob/master/codemeta.json
    https://github.com/psi4/psi4/graphs/contributors
    http://psicode.org/psi4manual/master/introduction.html#citing-psifour

    -----------------------------------------------------------------------


    Psi4 started on: Tuesday, 14 September 2021 06:08PM

    Process ID: 5106
    Host:       ds1
    PSIDATADIR: /theoryfs2/ds/csargent/miniconda3/envs/cle/share/psi4
    Memory:     500.0 MiB
    Threads:    6

  ==> Input File <==

--------------------------------------------------------------------------
# PSI4 file produced by CrystaLattE

# Generated from:               imidazole.xyz
# Psithon input for N-mer:      2mer-0+385
# Number of atoms per monomer:  [9, 9]
# Number of replicas:           2
# COM priority:                 1.361510821523e-05
# Minimum COM separations:      22.161
# Separation priority:          2.339234546826e-05
# Minimum monomer separations:  18.503
# Cutoff priority:              6.690085871230e-07
# Nuclear repulsion energy:     359.1609594481538

memory 7 GB

molecule Dimer_0_385 {
  N           -4.29309621      -3.06837431       5.30516231
  N           -2.15847371      -2.92627296       1.72037448
  H           -0.02545587      -6.35903575       2.22046452
  H           -2.68566968      -6.53260241       6.61445954
  H           -4.74388423      -0.00609006       2.75615968
  H           -1.41045540      -2.24723147       0.00000000
  C           -1.43737991      -5.07504848       2.94065891
  C           -2.76900782      -5.14609916       5.13522880
  C           -3.85955036      -1.77728198       3.21093411
--
  N            3.78955208     -11.25341251     -35.15519699
  N            5.92417458     -11.39551386     -38.73998483
  H            8.05719243      -7.96275107     -38.23989479
  H            5.39697861      -7.78918441     -33.84589977
  H            3.33876407     -14.31569676     -37.70419963
  H            6.67219289     -12.07455535     -40.46035930
  C            6.64526838      -9.24673834     -37.51970039
  C            5.31364047      -9.17568766     -35.32513050
  C            4.22309793     -12.54450484     -37.24942519
units = au
no_com
no_reorient
}

set {
  e_convergence 10
  d_convergence 10
  scf_type df
  mp2_type df
  cc_type df
  freeze_core true
}

energy('sapt0/aug-cc-pvdz')

--------------------------------------------------------------------------

  Memory set to   6.519 GiB by Python driver.

Scratch directory: /scratch/csargent/psi4.31446.79897/

Scratch directory: /scratch/csargent/psi4.31446.79897/

  //>>>>>>>>>>>>>>>>>>>>>>>>>>>>>>>>>>>//
  //              Dimer HF             //
  //<<<<<<<<<<<<<<<<<<<<<<<<<<<<<<<<<<<//


*** tstart() called on ds1
*** at Tue Sep 14 18:08:49 2021

   => Loading Basis Set <=

    Name: AUG-CC-PVDZ
    Role: ORBITAL
    Keyword: BASIS
    atoms 1-2, 10-11 entry N          line   218 file /theoryfs2/ds/csargent/miniconda3/envs/cle/share/psi4/basis/aug-cc-pvdz.gbs
    atoms 3-6, 12-15 entry H          line    40 file /theoryfs2/ds/csargent/miniconda3/envs/cle/share/psi4/basis/aug-cc-pvdz.gbs
    atoms 7-9, 16-18 entry C          line   182 file /theoryfs2/ds/csargent/miniconda3/envs/cle/share/psi4/basis/aug-cc-pvdz.gbs


         ---------------------------------------------------------
                                   SCF
               by Justin Turney, Rob Parrish, Andy Simmonett
                          and Daniel G. A. Smith
                              RHF Reference
                        6 Threads,   6675 MiB Core
         ---------------------------------------------------------

  ==> Geometry <==

    Molecular point group: c1
    Full point group: C1

    Geometry (in Bohr), charge = 0, multiplicity = 1:

       Center              X                  Y                   Z               Mass
    ------------   -----------------  -----------------  -----------------  -----------------
         N           -4.293096210000    -3.068374310000     5.305162310000    14.003074004430
         N           -2.158473710000    -2.926272960000     1.720374480000    14.003074004430
         H           -0.025455870000    -6.359035750000     2.220464520000     1.007825032230
         H           -2.685669680000    -6.532602410000     6.614459540000     1.007825032230
         H           -4.743884230000    -0.006090060000     2.756159680000     1.007825032230
         H           -1.410455400000    -2.247231470000     0.000000000000     1.007825032230
         C           -1.437379910000    -5.075048480000     2.940658910000    12.000000000000
         C           -2.769007820000    -5.146099160000     5.135228800000    12.000000000000
         C           -3.859550360000    -1.777281980000     3.210934110000    12.000000000000
         N            3.789552080000   -11.253412510000   -35.155196990000    14.003074004430
         N            5.924174580000   -11.395513860000   -38.739984830000    14.003074004430
         H            8.057192430000    -7.962751070000   -38.239894790000     1.007825032230
         H            5.396978610000    -7.789184410000   -33.845899770000     1.007825032230
         H            3.338764070000   -14.315696760000   -37.704199630000     1.007825032230
         H            6.672192890000   -12.074555350000   -40.460359300000     1.007825032230
         C            6.645268380000    -9.246738340000   -37.519700390000    12.000000000000
         C            5.313640470000    -9.175687660000   -35.325130500000    12.000000000000
         C            4.223097930000   -12.544504840000   -37.249425190000    12.000000000000

  Running in c1 symmetry.

  Rotational constants: A =      0.02761  B =      0.00058  C =      0.00057 [cm^-1]
  Rotational constants: A =    827.66769  B =     17.50040  C =     17.18458 [MHz]
  Nuclear repulsion =  359.160959482194130

  Charge       = 0
  Multiplicity = 1
  Electrons    = 72
  Nalpha       = 36
  Nbeta        = 36

  ==> Algorithm <==

  SCF Algorithm Type is DF.
  DIIS enabled.
  MOM disabled.
  Fractional occupation disabled.
  Guess Type is SAD.
  Energy threshold   = 1.00e-10
  Density threshold  = 1.00e-10
  Integral threshold = 1.00e-12

  ==> Primary Basis <==

  Basis Set: AUG-CC-PVDZ
    Blend: AUG-CC-PVDZ
    Number of shells: 130
    Number of basis functions: 302
    Number of Cartesian functions: 322
    Spherical Harmonics?: true
    Max angular momentum: 2

   => Loading Basis Set <=

    Name: (AUG-CC-PVDZ AUX)
    Role: JKFIT
    Keyword: DF_BASIS_SCF
    atoms 1-2, 10-11 entry N          line   212 file /theoryfs2/ds/csargent/miniconda3/envs/cle/share/psi4/basis/aug-cc-pvdz-jkfit.gbs
    atoms 3-6, 12-15 entry H          line    70 file /theoryfs2/ds/csargent/miniconda3/envs/cle/share/psi4/basis/aug-cc-pvdz-jkfit.gbs
    atoms 7-9, 16-18 entry C          line   154 file /theoryfs2/ds/csargent/miniconda3/envs/cle/share/psi4/basis/aug-cc-pvdz-jkfit.gbs

  ==> Integral Setup <==

  ==> DiskDFJK: Density-Fitted J/K Matrices <==

    J tasked:                  Yes
    K tasked:                  Yes
    wK tasked:                  No
    OpenMP threads:              6
    Integrals threads:           6
    Memory [MiB]:             5006
    Algorithm:                Core
    Integral Cache:           SAVE
    Schwarz Cutoff:          1E-12
    Fitting Condition:       1E-10

   => Auxiliary Basis Set <=

  Basis Set: (AUG-CC-PVDZ AUX)
    Blend: AUG-CC-PVDZ-JKFIT
    Number of shells: 376
    Number of basis functions: 1116
    Number of Cartesian functions: 1290
    Spherical Harmonics?: true
    Max angular momentum: 3

  Minimum eigenvalue in the overlap matrix is 2.1837059490E-05.
  Reciprocal condition number of the overlap matrix is 1.8394511180E-06.
    Using symmetric orthogonalization.

  ==> Pre-Iterations <==

  SCF Guess: Superposition of Atomic Densities via on-the-fly atomic UHF (no occupation information).

   -------------------------
    Irrep   Nso     Nmo
   -------------------------
     A        302     302
   -------------------------
    Total     302     302
   -------------------------

  ==> Iterations <==

                           Total Energy        Delta E     RMS |[F,P]|

   @DF-RHF iter SAD:  -449.11714338630622   -4.49117e+02   0.00000e+00
   @DF-RHF iter   1:  -449.39627384960727   -2.79130e-01   2.30576e-03 DIIS
   @DF-RHF iter   2:  -449.61077841118805   -2.14505e-01   1.31079e-03 DIIS
   @DF-RHF iter   3:  -449.68342786135401   -7.26495e-02   2.45866e-04 DIIS
   @DF-RHF iter   4:  -449.68679431585917   -3.36645e-03   1.12841e-04 DIIS
   @DF-RHF iter   5:  -449.68739586029426   -6.01544e-04   1.78800e-05 DIIS
   @DF-RHF iter   6:  -449.68743051756690   -3.46573e-05   7.94231e-06 DIIS
   @DF-RHF iter   7:  -449.68743669088911   -6.17332e-06   3.10297e-06 DIIS
   @DF-RHF iter   8:  -449.68743815445714   -1.46357e-06   1.09959e-06 DIIS
   @DF-RHF iter   9:  -449.68743837604529   -2.21588e-07   2.65614e-07 DIIS
   @DF-RHF iter  10:  -449.68743838711134   -1.10660e-08   1.03493e-07 DIIS
   @DF-RHF iter  11:  -449.68743838875758   -1.64624e-09   4.62369e-08 DIIS
   @DF-RHF iter  12:  -449.68743838906175   -3.04169e-10   1.37198e-08 DIIS
   @DF-RHF iter  13:  -449.68743838908830   -2.65459e-11   5.07167e-09 DIIS
   @DF-RHF iter  14:  -449.68743838909154   -3.24007e-12   2.23832e-09 DIIS
   @DF-RHF iter  15:  -449.68743838909234   -7.95808e-13   7.46735e-10 DIIS
   @DF-RHF iter  16:  -449.68743838909211    2.27374e-13   3.32931e-10 DIIS
   @DF-RHF iter  17:  -449.68743838909177    3.41061e-13   7.15620e-11 DIIS
  Energy and wave function converged.


  ==> Post-Iterations <==

    Orbital Energies [Eh]
    ---------------------

    Doubly Occupied:

       1A    -15.637853     2A    -15.636241     3A    -15.552029
       4A    -15.550423     5A    -11.301714     6A    -11.300111
       7A    -11.263975     8A    -11.262347     9A    -11.246484
      10A    -11.244849    11A     -1.353664    12A     -1.352051
      13A     -1.169902    14A     -1.168289    15A     -1.012906
      16A     -1.011288    17A     -0.825185    18A     -0.823570
      19A     -0.804545    20A     -0.802922    21A     -0.761461
      22A     -0.759851    23A     -0.610904    24A     -0.609284
      25A     -0.604753    26A     -0.603140    27A     -0.602722
      28A     -0.601100    29A     -0.571772    30A     -0.570149
      31A     -0.436308    32A     -0.434697    33A     -0.401277
      34A     -0.399660    35A     -0.321495    36A     -0.319875

    Virtual:

      37A      0.024747    38A      0.026367    39A      0.040847
      40A      0.042429    41A      0.049072    42A      0.050749
      43A      0.061016    44A      0.062674    45A      0.088342
      46A      0.089909    47A      0.100607    48A      0.102179
      49A      0.120069    50A      0.121658    51A      0.124746
      52A      0.126406    53A      0.132725    54A      0.132851
      55A      0.134390    56A      0.134528    57A      0.140101
      58A      0.141719    59A      0.155690    60A      0.157361
      61A      0.158020    62A      0.159532    63A      0.170944
      64A      0.172695    65A      0.177420    66A      0.179028
      67A      0.186513    68A      0.188078    69A      0.210751
      70A      0.212346    71A      0.219470    72A      0.221071
      73A      0.231532    74A      0.233155    75A      0.240620
      76A      0.242239    77A      0.260823    78A      0.262448
      79A      0.266901    80A      0.268535    81A      0.277065
      82A      0.278668    83A      0.300971    84A      0.302566
      85A      0.313630    86A      0.315212    87A      0.337339
      88A      0.338995    89A      0.360686    90A      0.362331
      91A      0.369968    92A      0.371587    93A      0.379019
      94A      0.380649    95A      0.387526    96A      0.389124
      97A      0.396303    98A      0.397934    99A      0.416181
     100A      0.417799   101A      0.428154   102A      0.429777
     103A      0.451271   104A      0.452866   105A      0.465557
     106A      0.467169   107A      0.480467   108A      0.482075
     109A      0.485449   110A      0.487090   111A      0.487316
     112A      0.488947   113A      0.550921   114A      0.552525
     115A      0.555586   116A      0.557205   117A      0.567484
     118A      0.569097   119A      0.575689   120A      0.577290
     121A      0.593467   122A      0.595087   123A      0.598152
     124A      0.599773   125A      0.615248   126A      0.616871
     127A      0.635721   128A      0.637354   129A      0.651678
     130A      0.653300   131A      0.668457   132A      0.670087
     133A      0.670522   134A      0.672143   135A      0.677405
     136A      0.679019   137A      0.683034   138A      0.684677
     139A      0.713898   140A      0.715520   141A      0.724979
     142A      0.726596   143A      0.740417   144A      0.742038
     145A      0.761881   146A      0.763493   147A      0.766590
     148A      0.768205   149A      0.790124   150A      0.791749
     151A      0.792822   152A      0.794410   153A      0.808952
     154A      0.810570   155A      0.859584   156A      0.861208
     157A      0.870612   158A      0.872233   159A      0.884943
     160A      0.886561   161A      0.888985   162A      0.890631
     163A      0.953549   164A      0.955162   165A      0.976177
     166A      0.977788   167A      0.997550   168A      0.999165
     169A      1.009880   170A      1.011495   171A      1.016584
     172A      1.018207   173A      1.029882   174A      1.031488
     175A      1.076539   176A      1.078147   177A      1.083757
     178A      1.085364   179A      1.126162   180A      1.127789
     181A      1.139670   182A      1.141293   183A      1.148764
     184A      1.150378   185A      1.166350   186A      1.167972
     187A      1.216629   188A      1.218242   189A      1.259926
     190A      1.261548   191A      1.301706   192A      1.303334
     193A      1.384246   194A      1.385854   195A      1.397329
     196A      1.398941   197A      1.450338   198A      1.451953
     199A      1.502474   200A      1.504090   201A      1.517611
     202A      1.519226   203A      1.573310   204A      1.573449
     205A      1.574938   206A      1.575080   207A      1.595576
     208A      1.597195   209A      1.651350   210A      1.652968
     211A      1.670674   212A      1.672309   213A      1.704464
     214A      1.706094   215A      1.723692   216A      1.725278
     217A      1.781837   218A      1.783459   219A      1.798248
     220A      1.799873   221A      1.806223   222A      1.807858
     223A      1.864140   224A      1.865752   225A      1.880691
     226A      1.882288   227A      1.923591   228A      1.925198
     229A      1.964186   230A      1.965803   231A      2.021213
     232A      2.022833   233A      2.024632   234A      2.026252
     235A      2.072176   236A      2.073798   237A      2.106246
     238A      2.107864   239A      2.125936   240A      2.127566
     241A      2.135143   242A      2.136774   243A      2.167862
     244A      2.169483   245A      2.178017   246A      2.179633
     247A      2.266279   248A      2.267897   249A      2.275157
     250A      2.276768   251A      2.300134   252A      2.301735
     253A      2.331274   254A      2.332884   255A      2.416942
     256A      2.418573   257A      2.496142   258A      2.497752
     259A      2.513216   260A      2.514830   261A      2.544579
     262A      2.546183   263A      2.584936   264A      2.586558
     265A      2.632952   266A      2.634572   267A      2.733266
     268A      2.734899   269A      2.746221   270A      2.747832
     271A      2.766279   272A      2.767903   273A      2.793344
     274A      2.794961   275A      2.802634   276A      2.804249
     277A      2.836849   278A      2.838465   279A      2.866418
     280A      2.868027   281A      2.951940   282A      2.953556
     283A      2.980053   284A      2.981664   285A      3.050386
     286A      3.052011   287A      3.069099   288A      3.070720
     289A      3.198367   290A      3.199976   291A      3.207988
     292A      3.209607   293A      3.334020   294A      3.335630
     295A      3.353762   296A      3.355378   297A      3.517743
     298A      3.519359   299A      3.767484   300A      3.769098
     301A      4.108216   302A      4.109842

    Final Occupation by Irrep:
              A
    DOCC [    36 ]

  @DF-RHF Final Energy:  -449.68743838909177

   => Energetics <=

    Nuclear Repulsion Energy =            359.1609594821941300
    One-Electron Energy =               -1319.8392052727269856
    Two-Electron Energy =                 510.9908074014410886
    Total Energy =                       -449.6874383890917670

Computation Completed


Properties will be evaluated at   0.000000,   0.000000,   0.000000 [a0]

Properties computed using the SCF density matrix

  Nuclear Dipole Moment: [e a0]
     X:    86.1312      Y:  -515.5843      Z: -1199.5914

  Electronic Dipole Moment: [e a0]
     X:   -84.5232      Y:   515.5831      Z:  1196.9228

  Dipole Moment: [e a0]
     X:     1.6080      Y:    -0.0012      Z:    -2.6685     Total:     3.1156

  Dipole Moment: [D]
     X:     4.0872      Y:    -0.0032      Z:    -6.7828     Total:     7.9190


*** tstop() called on ds1 at Tue Sep 14 18:08:54 2021
Module time:
	user time   =      22.07 seconds =       0.37 minutes
	system time =       0.57 seconds =       0.01 minutes
	total time  =          5 seconds =       0.08 minutes
Total time:
	user time   =      22.07 seconds =       0.37 minutes
	system time =       0.57 seconds =       0.01 minutes
	total time  =          5 seconds =       0.08 minutes

  //>>>>>>>>>>>>>>>>>>>>>>>>>>>>>>>>>>>//
  //            Monomer A HF           //
  //<<<<<<<<<<<<<<<<<<<<<<<<<<<<<<<<<<<//


*** tstart() called on ds1
*** at Tue Sep 14 18:08:54 2021

   => Loading Basis Set <=

    Name: AUG-CC-PVDZ
    Role: ORBITAL
    Keyword: BASIS
    atoms 1-2, 10-11 entry N          line   218 file /theoryfs2/ds/csargent/miniconda3/envs/cle/share/psi4/basis/aug-cc-pvdz.gbs
    atoms 3-6, 12-15 entry H          line    40 file /theoryfs2/ds/csargent/miniconda3/envs/cle/share/psi4/basis/aug-cc-pvdz.gbs
    atoms 7-9, 16-18 entry C          line   182 file /theoryfs2/ds/csargent/miniconda3/envs/cle/share/psi4/basis/aug-cc-pvdz.gbs


         ---------------------------------------------------------
                                   SCF
               by Justin Turney, Rob Parrish, Andy Simmonett
                          and Daniel G. A. Smith
                              RHF Reference
                        6 Threads,   6675 MiB Core
         ---------------------------------------------------------

  ==> Geometry <==

    Molecular point group: c1
    Full point group: C1

    Geometry (in Bohr), charge = 0, multiplicity = 1:

       Center              X                  Y                   Z               Mass
    ------------   -----------------  -----------------  -----------------  -----------------
         N           -4.293096210000    -3.068374310000     5.305162310000    14.003074004430
         N           -2.158473710000    -2.926272960000     1.720374480000    14.003074004430
         H           -0.025455870000    -6.359035750000     2.220464520000     1.007825032230
         H           -2.685669680000    -6.532602410000     6.614459540000     1.007825032230
         H           -4.743884230000    -0.006090060000     2.756159680000     1.007825032230
         H           -1.410455400000    -2.247231470000     0.000000000000     1.007825032230
         C           -1.437379910000    -5.075048480000     2.940658910000    12.000000000000
         C           -2.769007820000    -5.146099160000     5.135228800000    12.000000000000
         C           -3.859550360000    -1.777281980000     3.210934110000    12.000000000000
      Gh(N)           3.789552080000   -11.253412510000   -35.155196990000    14.003074004430
      Gh(N)           5.924174580000   -11.395513860000   -38.739984830000    14.003074004430
      Gh(H)           8.057192430000    -7.962751070000   -38.239894790000     1.007825032230
      Gh(H)           5.396978610000    -7.789184410000   -33.845899770000     1.007825032230
      Gh(H)           3.338764070000   -14.315696760000   -37.704199630000     1.007825032230
      Gh(H)           6.672192890000   -12.074555350000   -40.460359300000     1.007825032230
      Gh(C)           6.645268380000    -9.246738340000   -37.519700390000    12.000000000000
      Gh(C)           5.313640470000    -9.175687660000   -35.325130500000    12.000000000000
      Gh(C)           4.223097930000   -12.544504840000   -37.249425190000    12.000000000000

  Running in c1 symmetry.

  Rotational constants: A =      0.02761  B =      0.00058  C =      0.00057 [cm^-1]
  Rotational constants: A =    827.66769  B =     17.50040  C =     17.18458 [MHz]
  Nuclear repulsion =  164.086695994184396

  Charge       = 0
  Multiplicity = 1
  Electrons    = 36
  Nalpha       = 18
  Nbeta        = 18

  ==> Algorithm <==

  SCF Algorithm Type is DF.
  DIIS enabled.
  MOM disabled.
  Fractional occupation disabled.
  Guess Type is SAD.
  Energy threshold   = 1.00e-10
  Density threshold  = 1.00e-10
  Integral threshold = 1.00e-12

  ==> Primary Basis <==

  Basis Set: AUG-CC-PVDZ
    Blend: AUG-CC-PVDZ
    Number of shells: 130
    Number of basis functions: 302
    Number of Cartesian functions: 322
    Spherical Harmonics?: true
    Max angular momentum: 2

   => Loading Basis Set <=

    Name: (AUG-CC-PVDZ AUX)
    Role: JKFIT
    Keyword: DF_BASIS_SCF
    atoms 1-2, 10-11 entry N          line   212 file /theoryfs2/ds/csargent/miniconda3/envs/cle/share/psi4/basis/aug-cc-pvdz-jkfit.gbs
    atoms 3-6, 12-15 entry H          line    70 file /theoryfs2/ds/csargent/miniconda3/envs/cle/share/psi4/basis/aug-cc-pvdz-jkfit.gbs
    atoms 7-9, 16-18 entry C          line   154 file /theoryfs2/ds/csargent/miniconda3/envs/cle/share/psi4/basis/aug-cc-pvdz-jkfit.gbs

  ==> Integral Setup <==

  ==> DiskDFJK: Density-Fitted J/K Matrices <==

    J tasked:                  Yes
    K tasked:                  Yes
    wK tasked:                  No
    OpenMP threads:              6
    Integrals threads:           6
    Memory [MiB]:             5006
    Algorithm:                Core
    Integral Cache:           LOAD
    Schwarz Cutoff:          1E-12
    Fitting Condition:       1E-10

   => Auxiliary Basis Set <=

  Basis Set: (AUG-CC-PVDZ AUX)
    Blend: AUG-CC-PVDZ-JKFIT
    Number of shells: 376
    Number of basis functions: 1116
    Number of Cartesian functions: 1290
    Spherical Harmonics?: true
    Max angular momentum: 3

  Minimum eigenvalue in the overlap matrix is 2.1837059490E-05.
  Reciprocal condition number of the overlap matrix is 1.8394511180E-06.
    Using symmetric orthogonalization.

  ==> Pre-Iterations <==

  SCF Guess: Superposition of Atomic Densities via on-the-fly atomic UHF (no occupation information).

   -------------------------
    Irrep   Nso     Nmo
   -------------------------
     A        302     302
   -------------------------
    Total     302     302
   -------------------------

  ==> Iterations <==

                           Total Energy        Delta E     RMS |[F,P]|

   @DF-RHF iter SAD:  -224.55857169509810   -2.24559e+02   0.00000e+00
   @DF-RHF iter   1:  -224.69806464822727   -1.39493e-01   1.63067e-03 DIIS
   @DF-RHF iter   2:  -224.80532026652878   -1.07256e-01   9.27384e-04 DIIS
   @DF-RHF iter   3:  -224.84168817040987   -3.63679e-02   1.74019e-04 DIIS
   @DF-RHF iter   4:  -224.84337342247591   -1.68525e-03   7.98972e-05 DIIS
   @DF-RHF iter   5:  -224.84367500318797   -3.01581e-04   1.26452e-05 DIIS
   @DF-RHF iter   6:  -224.84369234022125   -1.73370e-05   5.61871e-06 DIIS
   @DF-RHF iter   7:  -224.84369542829097   -3.08807e-06   2.19503e-06 DIIS
   @DF-RHF iter   8:  -224.84369616020928   -7.31918e-07   7.77587e-07 DIIS
   @DF-RHF iter   9:  -224.84369627100358   -1.10794e-07   1.87961e-07 DIIS
   @DF-RHF iter  10:  -224.84369627653939   -5.53581e-09   7.33125e-08 DIIS
   @DF-RHF iter  11:  -224.84369627736527   -8.25878e-10   3.26918e-08 DIIS
   @DF-RHF iter  12:  -224.84369627751735   -1.52085e-10   9.70884e-09 DIIS
   @DF-RHF iter  13:  -224.84369627753054   -1.31877e-11   3.58840e-09 DIIS
   @DF-RHF iter  14:  -224.84369627753219   -1.64846e-12   1.58275e-09 DIIS
   @DF-RHF iter  15:  -224.84369627753250   -3.12639e-13   5.27556e-10 DIIS
   @DF-RHF iter  16:  -224.84369627753239    1.13687e-13   2.34517e-10 DIIS
   @DF-RHF iter  17:  -224.84369627753230    8.52651e-14   4.71140e-11 DIIS
  Energy and wave function converged.


  ==> Post-Iterations <==

    Orbital Energies [Eh]
    ---------------------

    Doubly Occupied:

       1A    -15.637071     2A    -15.551216     3A    -11.300916
       4A    -11.263160     5A    -11.245653     6A     -1.352867
       7A     -1.169098     8A     -1.012098     9A     -0.824390
      10A     -0.803731    11A     -0.760666    12A     -0.610096
      13A     -0.603958    14A     -0.601922    15A     -0.570942
      16A     -0.435483    17A     -0.400464    18A     -0.320685

    Virtual:

      19A      0.021865    20A      0.025388    21A      0.039410
      22A      0.041580    23A      0.042841    24A      0.049997
      25A      0.061864    26A      0.067074    27A      0.075851
      28A      0.085457    29A      0.089096    30A      0.096871
      31A      0.101397    32A      0.120831    33A      0.123968
      34A      0.124255    35A      0.125577    36A      0.126015
      37A      0.126605    38A      0.133472    39A      0.133473
      40A      0.133773    41A      0.137392    42A      0.140942
      43A      0.155917    44A      0.156500    45A      0.158699
      46A      0.171988    47A      0.178189    48A      0.187224
      49A      0.191565    50A      0.207144    51A      0.208677
      52A      0.211559    53A      0.211767    54A      0.219544
      55A      0.220268    56A      0.221849    57A      0.232359
      58A      0.232389    59A      0.241408    60A      0.261605
      61A      0.267803    62A      0.271495    63A      0.277911
      64A      0.298640    65A      0.301746    66A      0.305741
      67A      0.314442    68A      0.318544    69A      0.338197
      70A      0.359515    71A      0.361488    72A      0.370745
      73A      0.374779    74A      0.379800    75A      0.388291
      76A      0.392759    77A      0.397097    78A      0.417031
      79A      0.426640    80A      0.429000    81A      0.434520
      82A      0.439644    83A      0.448385    84A      0.451519
      85A      0.452059    86A      0.466350    87A      0.467480
      88A      0.480345    89A      0.481229    90A      0.486283
      91A      0.488151    92A      0.516643    93A      0.519917
      94A      0.535321    95A      0.537628    96A      0.542414
      97A      0.551710    98A      0.555196    99A      0.556382
     100A      0.568280   101A      0.576474   102A      0.578772
     103A      0.586893   104A      0.594249   105A      0.598939
     106A      0.605721   107A      0.611425   108A      0.616080
     109A      0.617685   110A      0.636538   111A      0.639075
     112A      0.652504   113A      0.669282   114A      0.671337
     115A      0.676987   116A      0.678185   117A      0.683061
     118A      0.683874   119A      0.710478   120A      0.714698
     121A      0.725758   122A      0.735397   123A      0.741238
     124A      0.755504   125A      0.762698   126A      0.767400
     127A      0.790929   128A      0.793606   129A      0.797584
     130A      0.809747   131A      0.809831   132A      0.811857
     133A      0.822569   134A      0.835883   135A      0.858917
     136A      0.860398   137A      0.871425   138A      0.885765
     139A      0.885881   140A      0.889823   141A      0.909082
     142A      0.918969   143A      0.926225   144A      0.954351
     145A      0.968074   146A      0.976964   147A      0.991169
     148A      0.998360   149A      1.010706   150A      1.014777
     151A      1.017404   152A      1.030676   153A      1.058314
     154A      1.077353   155A      1.077988   156A      1.084552
     157A      1.103003   158A      1.115365   159A      1.126983
     160A      1.131865   161A      1.140497   162A      1.149565
     163A      1.167170   164A      1.170220   165A      1.173434
     166A      1.196928   167A      1.209956   168A      1.217445
     169A      1.260721   170A      1.277373   171A      1.290011
     172A      1.296331   173A      1.302539   174A      1.311926
     175A      1.317480   176A      1.346925   177A      1.383496
     178A      1.385028   179A      1.398145   180A      1.451143
     181A      1.494298   182A      1.503288   183A      1.515222
     184A      1.518410   185A      1.540720   186A      1.574127
     187A      1.574285   188A      1.596381   189A      1.652159
     190A      1.660313   191A      1.671505   192A      1.705286
     193A      1.724477   194A      1.782643   195A      1.799067
     196A      1.807063   197A      1.864950   198A      1.881477
     199A      1.924391   200A      1.964987   201A      2.022005
     202A      2.025429   203A      2.039027   204A      2.072981
     205A      2.100465   206A      2.107054   207A      2.118864
     208A      2.126759   209A      2.130760   210A      2.135965
     211A      2.148880   212A      2.168670   213A      2.178815
     214A      2.184435   215A      2.229166   216A      2.252127
     217A      2.267082   218A      2.275963   219A      2.300924
     220A      2.308070   221A      2.326601   222A      2.332072
     223A      2.376315   224A      2.405159   225A      2.412801
     226A      2.417758   227A      2.455186   228A      2.470301
     229A      2.493397   230A      2.496919   231A      2.514025
     232A      2.525374   233A      2.544923   234A      2.545345
     235A      2.576323   236A      2.585743   237A      2.599336
     238A      2.633765   239A      2.695741   240A      2.734093
     241A      2.747025   242A      2.767089   243A      2.789923
     244A      2.794149   245A      2.803444   246A      2.828312
     247A      2.837641   248A      2.867213   249A      2.895334
     250A      2.932779   251A      2.948953   252A      2.952738
     253A      2.980862   254A      3.043097   255A      3.051201
     256A      3.069910   257A      3.075759   258A      3.131517
     259A      3.159233   260A      3.182501   261A      3.199163
     262A      3.208795   263A      3.212934   264A      3.334816
     265A      3.340425   266A      3.354351   267A      3.354572
     268A      3.362463   269A      3.458284   270A      3.494027
     271A      3.518552   272A      3.569239   273A      3.608480
     274A      3.706858   275A      3.726319   276A      3.768294
     277A      3.777995   278A      3.797838   279A      3.857535
     280A      3.870336   281A      4.003481   282A      4.109022
     283A      4.212400   284A      4.636338   285A      4.638406
     286A      4.695553   287A      4.771435   288A      4.879711
     289A      5.021026   290A      5.254281   291A      5.372795
     292A      5.494422   293A      5.609973   294A      5.715931
     295A      5.883555   296A      6.089362   297A      6.197789
     298A     18.255048   299A     18.589804   300A     19.300008
     301A     25.311514   302A     25.452946

    Final Occupation by Irrep:
              A
    DOCC [    18 ]

  @DF-RHF Final Energy:  -224.84369627753230

   => Energetics <=

    Nuclear Repulsion Energy =            164.0866959941843959
    One-Electron Energy =                -628.9319562977586884
    Two-Electron Energy =                 240.0015640260419616
    Total Energy =                       -224.8436962775323025

Computation Completed


Properties will be evaluated at   0.000000,   0.000000,   0.000000 [a0]

Properties computed using the SCF density matrix

  Nuclear Dipole Moment: [e a0]
     X:  -102.4221      Y:  -129.0981      Z:   128.4908

  Electronic Dipole Moment: [e a0]
     X:   103.2259      Y:   129.2613      Z:  -129.8232

  Dipole Moment: [e a0]
     X:     0.8038      Y:     0.1633      Z:    -1.3324     Total:     1.5646

  Dipole Moment: [D]
     X:     2.0431      Y:     0.4150      Z:    -3.3867     Total:     3.9769


*** tstop() called on ds1 at Tue Sep 14 18:08:57 2021
Module time:
	user time   =      15.92 seconds =       0.27 minutes
	system time =       0.31 seconds =       0.01 minutes
	total time  =          3 seconds =       0.05 minutes
Total time:
	user time   =      38.15 seconds =       0.64 minutes
	system time =       0.88 seconds =       0.01 minutes
	total time  =          8 seconds =       0.13 minutes

  //>>>>>>>>>>>>>>>>>>>>>>>>>>>>>>>>>>>//
  //            Monomer B HF           //
  //<<<<<<<<<<<<<<<<<<<<<<<<<<<<<<<<<<<//


*** tstart() called on ds1
*** at Tue Sep 14 18:08:57 2021

   => Loading Basis Set <=

    Name: AUG-CC-PVDZ
    Role: ORBITAL
    Keyword: BASIS
    atoms 1-2, 10-11 entry N          line   218 file /theoryfs2/ds/csargent/miniconda3/envs/cle/share/psi4/basis/aug-cc-pvdz.gbs
    atoms 3-6, 12-15 entry H          line    40 file /theoryfs2/ds/csargent/miniconda3/envs/cle/share/psi4/basis/aug-cc-pvdz.gbs
    atoms 7-9, 16-18 entry C          line   182 file /theoryfs2/ds/csargent/miniconda3/envs/cle/share/psi4/basis/aug-cc-pvdz.gbs


         ---------------------------------------------------------
                                   SCF
               by Justin Turney, Rob Parrish, Andy Simmonett
                          and Daniel G. A. Smith
                              RHF Reference
                        6 Threads,   6675 MiB Core
         ---------------------------------------------------------

  ==> Geometry <==

    Molecular point group: c1
    Full point group: C1

    Geometry (in Bohr), charge = 0, multiplicity = 1:

       Center              X                  Y                   Z               Mass
    ------------   -----------------  -----------------  -----------------  -----------------
      Gh(N)          -4.293096210000    -3.068374310000     5.305162310000    14.003074004430
      Gh(N)          -2.158473710000    -2.926272960000     1.720374480000    14.003074004430
      Gh(H)          -0.025455870000    -6.359035750000     2.220464520000     1.007825032230
      Gh(H)          -2.685669680000    -6.532602410000     6.614459540000     1.007825032230
      Gh(H)          -4.743884230000    -0.006090060000     2.756159680000     1.007825032230
      Gh(H)          -1.410455400000    -2.247231470000     0.000000000000     1.007825032230
      Gh(C)          -1.437379910000    -5.075048480000     2.940658910000    12.000000000000
      Gh(C)          -2.769007820000    -5.146099160000     5.135228800000    12.000000000000
      Gh(C)          -3.859550360000    -1.777281980000     3.210934110000    12.000000000000
         N            3.789552080000   -11.253412510000   -35.155196990000    14.003074004430
         N            5.924174580000   -11.395513860000   -38.739984830000    14.003074004430
         H            8.057192430000    -7.962751070000   -38.239894790000     1.007825032230
         H            5.396978610000    -7.789184410000   -33.845899770000     1.007825032230
         H            3.338764070000   -14.315696760000   -37.704199630000     1.007825032230
         H            6.672192890000   -12.074555350000   -40.460359300000     1.007825032230
         C            6.645268380000    -9.246738340000   -37.519700390000    12.000000000000
         C            5.313640470000    -9.175687660000   -35.325130500000    12.000000000000
         C            4.223097930000   -12.544504840000   -37.249425190000    12.000000000000

  Running in c1 symmetry.

  Rotational constants: A =      0.02761  B =      0.00058  C =      0.00057 [cm^-1]
  Rotational constants: A =    827.66769  B =     17.50040  C =     17.18458 [MHz]
  Nuclear repulsion =  164.086695891836712

  Charge       = 0
  Multiplicity = 1
  Electrons    = 36
  Nalpha       = 18
  Nbeta        = 18

  ==> Algorithm <==

  SCF Algorithm Type is DF.
  DIIS enabled.
  MOM disabled.
  Fractional occupation disabled.
  Guess Type is SAD.
  Energy threshold   = 1.00e-10
  Density threshold  = 1.00e-10
  Integral threshold = 1.00e-12

  ==> Primary Basis <==

  Basis Set: AUG-CC-PVDZ
    Blend: AUG-CC-PVDZ
    Number of shells: 130
    Number of basis functions: 302
    Number of Cartesian functions: 322
    Spherical Harmonics?: true
    Max angular momentum: 2

   => Loading Basis Set <=

    Name: (AUG-CC-PVDZ AUX)
    Role: JKFIT
    Keyword: DF_BASIS_SCF
    atoms 1-2, 10-11 entry N          line   212 file /theoryfs2/ds/csargent/miniconda3/envs/cle/share/psi4/basis/aug-cc-pvdz-jkfit.gbs
    atoms 3-6, 12-15 entry H          line    70 file /theoryfs2/ds/csargent/miniconda3/envs/cle/share/psi4/basis/aug-cc-pvdz-jkfit.gbs
    atoms 7-9, 16-18 entry C          line   154 file /theoryfs2/ds/csargent/miniconda3/envs/cle/share/psi4/basis/aug-cc-pvdz-jkfit.gbs

  ==> Integral Setup <==

  ==> DiskDFJK: Density-Fitted J/K Matrices <==

    J tasked:                  Yes
    K tasked:                  Yes
    wK tasked:                  No
    OpenMP threads:              6
    Integrals threads:           6
    Memory [MiB]:             5006
    Algorithm:                Core
    Integral Cache:           LOAD
    Schwarz Cutoff:          1E-12
    Fitting Condition:       1E-10

   => Auxiliary Basis Set <=

  Basis Set: (AUG-CC-PVDZ AUX)
    Blend: AUG-CC-PVDZ-JKFIT
    Number of shells: 376
    Number of basis functions: 1116
    Number of Cartesian functions: 1290
    Spherical Harmonics?: true
    Max angular momentum: 3

  Minimum eigenvalue in the overlap matrix is 2.1837059490E-05.
  Reciprocal condition number of the overlap matrix is 1.8394511180E-06.
    Using symmetric orthogonalization.

  ==> Pre-Iterations <==

  SCF Guess: Superposition of Atomic Densities via on-the-fly atomic UHF (no occupation information).

   -------------------------
    Irrep   Nso     Nmo
   -------------------------
     A        302     302
   -------------------------
    Total     302     302
   -------------------------

  ==> Iterations <==

                           Total Energy        Delta E     RMS |[F,P]|

   @DF-RHF iter SAD:  -224.55857168665656   -2.24559e+02   0.00000e+00
   @DF-RHF iter   1:  -224.69806464809710   -1.39493e-01   1.63067e-03 DIIS
   @DF-RHF iter   2:  -224.80532026645270   -1.07256e-01   9.27384e-04 DIIS
   @DF-RHF iter   3:  -224.84168817033913   -3.63679e-02   1.74019e-04 DIIS
   @DF-RHF iter   4:  -224.84337342242833   -1.68525e-03   7.98972e-05 DIIS
   @DF-RHF iter   5:  -224.84367500314471   -3.01581e-04   1.26452e-05 DIIS
   @DF-RHF iter   6:  -224.84369234017780   -1.73370e-05   5.61871e-06 DIIS
   @DF-RHF iter   7:  -224.84369542824737   -3.08807e-06   2.19503e-06 DIIS
   @DF-RHF iter   8:  -224.84369616016573   -7.31918e-07   7.77587e-07 DIIS
   @DF-RHF iter   9:  -224.84369627096004   -1.10794e-07   1.87961e-07 DIIS
   @DF-RHF iter  10:  -224.84369627649573   -5.53570e-09   7.33125e-08 DIIS
   @DF-RHF iter  11:  -224.84369627732190   -8.26162e-10   3.26918e-08 DIIS
   @DF-RHF iter  12:  -224.84369627747390   -1.51999e-10   9.70884e-09 DIIS
   @DF-RHF iter  13:  -224.84369627748728   -1.33866e-11   3.58840e-09 DIIS
   @DF-RHF iter  14:  -224.84369627748848   -1.19371e-12   1.58275e-09 DIIS
   @DF-RHF iter  15:  -224.84369627748922   -7.38964e-13   5.27556e-10 DIIS
   @DF-RHF iter  16:  -224.84369627748922    0.00000e+00   2.34517e-10 DIIS
   @DF-RHF iter  17:  -224.84369627748907    1.42109e-13   4.71140e-11 DIIS
  Energy and wave function converged.


  ==> Post-Iterations <==

    Orbital Energies [Eh]
    ---------------------

    Doubly Occupied:

       1A    -15.637071     2A    -15.551216     3A    -11.300916
       4A    -11.263160     5A    -11.245653     6A     -1.352867
       7A     -1.169098     8A     -1.012098     9A     -0.824390
      10A     -0.803731    11A     -0.760666    12A     -0.610096
      13A     -0.603958    14A     -0.601922    15A     -0.570942
      16A     -0.435483    17A     -0.400464    18A     -0.320685

    Virtual:

      19A      0.023484    20A      0.025388    21A      0.040982
      22A      0.041580    23A      0.044542    24A      0.049997
      25A      0.061864    26A      0.068702    27A      0.077436
      28A      0.087051    29A      0.089096    30A      0.098495
      31A      0.101397    32A      0.120831    33A      0.125577
      34A      0.125583    35A      0.125925    36A      0.127674
      37A      0.128187    38A      0.133472    39A      0.133773
      40A      0.135008    41A      0.139061    42A      0.140942
      43A      0.156500    44A      0.157610    45A      0.158699
      46A      0.171988    47A      0.178189    48A      0.187224
      49A      0.193177    50A      0.208730    51A      0.210285
      52A      0.211559    53A      0.213365    54A      0.220268
      55A      0.221145    56A      0.223467    57A      0.232359
      58A      0.234034    59A      0.241408    60A      0.261605
      61A      0.267803    62A      0.273094    63A      0.277911
      64A      0.300248    65A      0.301746    66A      0.307363
      67A      0.314442    68A      0.320156    69A      0.338197
      70A      0.361083    71A      0.361488    72A      0.370745
      73A      0.376442    74A      0.379800    75A      0.388291
      76A      0.394355    77A      0.397097    78A      0.417031
      79A      0.428325    80A      0.429000    81A      0.436170
      82A      0.441260    83A      0.449990    84A      0.452059
      85A      0.453127    86A      0.466350    87A      0.469100
      88A      0.481229    89A      0.481949    90A      0.486283
      91A      0.488151    92A      0.518257    93A      0.521540
      94A      0.536907    95A      0.539235    96A      0.544055
      97A      0.551710    98A      0.556382    99A      0.556799
     100A      0.568280   101A      0.576474   102A      0.580382
     103A      0.588493   104A      0.594249   105A      0.598939
     106A      0.607373   107A      0.613002   108A      0.616080
     109A      0.619296   110A      0.636538   111A      0.640709
     112A      0.652504   113A      0.669282   114A      0.671337
     115A      0.678185   116A      0.678596   117A      0.683874
     118A      0.684699   119A      0.712092   120A      0.714698
     121A      0.725758   122A      0.737036   123A      0.741238
     124A      0.757101   125A      0.762698   126A      0.767400
     127A      0.790929   128A      0.793606   129A      0.799195
     130A      0.809747   131A      0.811442   132A      0.813423
     133A      0.824218   134A      0.837522   135A      0.860398
     136A      0.860553   137A      0.871425   138A      0.885765
     139A      0.887492   140A      0.889823   141A      0.910707
     142A      0.920581   143A      0.927845   144A      0.954351
     145A      0.969692   146A      0.976964   147A      0.992773
     148A      0.998360   149A      1.010706   150A      1.016389
     151A      1.017404   152A      1.030676   153A      1.059959
     154A      1.077353   155A      1.079596   156A      1.084552
     157A      1.104614   158A      1.116991   159A      1.126983
     160A      1.133477   161A      1.140497   162A      1.149565
     163A      1.167170   164A      1.171844   165A      1.175033
     166A      1.198530   167A      1.211561   168A      1.217445
     169A      1.260721   170A      1.278978   171A      1.291612
     172A      1.297942   173A      1.302539   174A      1.313534
     175A      1.319090   176A      1.348536   177A      1.385028
     178A      1.385107   179A      1.398145   180A      1.451143
     181A      1.495906   182A      1.503288   183A      1.516820
     184A      1.518410   185A      1.542332   186A      1.574127
     187A      1.574285   188A      1.596381   189A      1.652159
     190A      1.661927   191A      1.671505   192A      1.705286
     193A      1.724477   194A      1.782643   195A      1.799067
     196A      1.807063   197A      1.864950   198A      1.881477
     199A      1.924391   200A      1.964987   201A      2.022005
     202A      2.025429   203A      2.040668   204A      2.072981
     205A      2.102060   206A      2.107054   207A      2.120442
     208A      2.126759   209A      2.132380   210A      2.135965
     211A      2.150505   212A      2.168670   213A      2.178815
     214A      2.186107   215A      2.230785   216A      2.253761
     217A      2.267082   218A      2.275963   219A      2.300924
     220A      2.309705   221A      2.328204   222A      2.332072
     223A      2.377890   224A      2.406767   225A      2.414448
     226A      2.417758   227A      2.456826   228A      2.471913
     229A      2.495022   230A      2.496919   231A      2.514025
     232A      2.526962   233A      2.545345   234A      2.546538
     235A      2.577968   236A      2.585743   237A      2.600971
     238A      2.633765   239A      2.697375   240A      2.734093
     241A      2.747025   242A      2.767089   243A      2.791497
     244A      2.794149   245A      2.803444   246A      2.829965
     247A      2.837641   248A      2.867213   249A      2.896915
     250A      2.934428   251A      2.950587   252A      2.952738
     253A      2.980862   254A      3.044686   255A      3.051201
     256A      3.069910   257A      3.077374   258A      3.133099
     259A      3.160825   260A      3.184120   261A      3.199163
     262A      3.208795   263A      3.214554   264A      3.334816
     265A      3.342046   266A      3.354572   267A      3.355956
     268A      3.364094   269A      3.459885   270A      3.495626
     271A      3.518552   272A      3.570847   273A      3.610089
     274A      3.708466   275A      3.727935   276A      3.768294
     277A      3.779609   278A      3.799441   279A      3.859162
     280A      3.871937   281A      4.005090   282A      4.109022
     283A      4.213996   284A      4.637963   285A      4.640020
     286A      4.697176   287A      4.773037   288A      4.881318
     289A      5.022639   290A      5.255884   291A      5.374407
     292A      5.496032   293A      5.611603   294A      5.717540
     295A      5.885152   296A      6.090970   297A      6.199389
     298A     18.256696   299A     18.591365   300A     19.301657
     301A     25.313115   302A     25.454548

    Final Occupation by Irrep:
              A
    DOCC [    18 ]

  @DF-RHF Final Energy:  -224.84369627748907

   => Energetics <=

    Nuclear Repulsion Energy =            164.0866958918367118
    One-Electron Energy =                -628.9319560901556088
    Two-Electron Energy =                 240.0015639208298239
    Total Energy =                       -224.8436962774890731

Computation Completed


Properties will be evaluated at   0.000000,   0.000000,   0.000000 [a0]

Properties computed using the SCF density matrix

  Nuclear Dipole Moment: [e a0]
     X:   188.5533      Y:  -386.4863      Z: -1328.0822

  Electronic Dipole Moment: [e a0]
     X:  -187.7495      Y:   386.3230      Z:  1326.7497

  Dipole Moment: [e a0]
     X:     0.8038      Y:    -0.1633      Z:    -1.3324     Total:     1.5646

  Dipole Moment: [D]
     X:     2.0431      Y:    -0.4150      Z:    -3.3867     Total:     3.9769


*** tstop() called on ds1 at Tue Sep 14 18:09:01 2021
Module time:
	user time   =      16.16 seconds =       0.27 minutes
	system time =       0.35 seconds =       0.01 minutes
	total time  =          4 seconds =       0.07 minutes
Total time:
	user time   =      54.47 seconds =       0.91 minutes
	system time =       1.24 seconds =       0.02 minutes
	total time  =         12 seconds =       0.20 minutes
  Constructing Basis Sets for SAPT...

   => Loading Basis Set <=

    Name: (AUG-CC-PVDZ AUX)
    Role: RIFIT
    Keyword: DF_BASIS_SAPT
    atoms 1-2, 10-11 entry N          line   158 file /theoryfs2/ds/csargent/miniconda3/envs/cle/share/psi4/basis/aug-cc-pvdz-ri.gbs
    atoms 3-6, 12-15 entry H          line    30 file /theoryfs2/ds/csargent/miniconda3/envs/cle/share/psi4/basis/aug-cc-pvdz-ri.gbs
    atoms 7-9, 16-18 entry C          line   112 file /theoryfs2/ds/csargent/miniconda3/envs/cle/share/psi4/basis/aug-cc-pvdz-ri.gbs


  //>>>>>>>>>>>>>>>>>>>>>>>>>>>>>>>>>>>//
  //               SAPT0               //
  //<<<<<<<<<<<<<<<<<<<<<<<<<<<<<<<<<<<//


*** tstart() called on ds1
*** at Tue Sep 14 18:09:01 2021

        SAPT0
    Ed Hohenstein
     6 June 2009

      Orbital Information
  --------------------------
    NSO        =       302
    NMO        =       302
    NRI        =       904
    NOCC A     =        18
    NOCC B     =        18
    FOCC A     =         5
    FOCC B     =         5
    NVIR A     =       284
    NVIR B     =       284

    Elst10,r            =    -0.000045751481 [Eh]
    Exch10              =     0.000000000000 [Eh]
    Exch10 (S^2)        =     0.000000000000 [Eh]

    Iter     Energy [mEh]          dE [mEh]         Residual      Time [s]
       1      -0.00003477       0.000034765       0.064210530             0
       2      -0.00003194      -0.000002823       0.016865874             0
       3      -0.00003473       0.000002792       0.007069650             0
       4      -0.00003545       0.000000721       0.001812116             0
       5      -0.00003536      -0.000000091       0.000779026             0
       6      -0.00003532      -0.000000039       0.000284189             1
       7      -0.00003533       0.000000008       0.000117025             1
       8      -0.00003534       0.000000004       0.000043855             1
       9      -0.00003534      -0.000000000       0.000015928             1
      10      -0.00003533      -0.000000001       0.000002981             1
      11      -0.00003534       0.000000000       0.000001030             1
      12      -0.00003534       0.000000000       0.000000271             1

    CHF Iterations converged


    Iter     Energy [mEh]          dE [mEh]         Residual      Time [s]
       1      -0.00004223       0.000042231       0.072628318             0
       2      -0.00003919      -0.000003040       0.018478129             1
       3      -0.00004353       0.000004339       0.006429332             1
       4      -0.00004396       0.000000434       0.002003885             1
       5      -0.00004389      -0.000000074       0.000860373             1
       6      -0.00004385      -0.000000044       0.000252797             1
       7      -0.00004385       0.000000003       0.000091684             1
       8      -0.00004385       0.000000005       0.000033838             1
       9      -0.00004385      -0.000000000       0.000012267             1
      10      -0.00004385      -0.000000001       0.000002331             2
      11      -0.00004385       0.000000000       0.000000564             2

    CHF Iterations converged

    Ind20,r (A<-B)      =    -0.000000035335 [Eh]
    Ind20,r (B<-A)      =    -0.000000043853 [Eh]
    Ind20,r             =    -0.000000079188 [Eh]
    Exch-Ind20,r (A<-B) =     0.000000000000 [Eh]
    Exch-Ind20,r (B<-A) =     0.000000000000 [Eh]
    Exch-Ind20,r        =     0.000000000000 [Eh]
    Disp20              =    -0.000000258436 [Eh]
    Disp20 (SS)         =    -0.000000129218 [Eh]
    Disp20 (OS)         =    -0.000000129218 [Eh]
    Exch-Disp20         =     0.000000000000 [Eh]
    Exch-Disp20 (SS)    =     0.000000000000 [Eh]
    Exch-Disp20 (OS)    =     0.000000000000 [Eh]

    SAPT Results
  --------------------------------------------------------------------------------------------------------
    Electrostatics                 -0.04575148 [mEh]      -0.02870949 [kcal/mol]      -0.12012050 [kJ/mol]
      Elst10,r                     -0.04575148 [mEh]      -0.02870949 [kcal/mol]      -0.12012050 [kJ/mol]

    Exchange                        0.00000000 [mEh]       0.00000000 [kcal/mol]       0.00000000 [kJ/mol]
      Exch10                        0.00000000 [mEh]       0.00000000 [kcal/mol]       0.00000000 [kJ/mol]
      Exch10(S^2)                   0.00000000 [mEh]       0.00000000 [kcal/mol]       0.00000000 [kJ/mol]

    Induction                      -0.00008259 [mEh]      -0.00005183 [kcal/mol]      -0.00021684 [kJ/mol]
      Ind20,r                      -0.00007919 [mEh]      -0.00004969 [kcal/mol]      -0.00020791 [kJ/mol]
      Exch-Ind20,r                  0.00000000 [mEh]       0.00000000 [kcal/mol]       0.00000000 [kJ/mol]
      delta HF,r (2)               -0.00000340 [mEh]      -0.00000213 [kcal/mol]      -0.00000893 [kJ/mol]

    Dispersion                     -0.00025844 [mEh]      -0.00016217 [kcal/mol]      -0.00067852 [kJ/mol]
      Disp20                       -0.00025844 [mEh]      -0.00016217 [kcal/mol]      -0.00067852 [kJ/mol]
      Exch-Disp20                   0.00000000 [mEh]       0.00000000 [kcal/mol]       0.00000000 [kJ/mol]
      Disp20 (SS)                  -0.00012922 [mEh]      -0.00008109 [kcal/mol]      -0.00033926 [kJ/mol]
      Disp20 (OS)                  -0.00012922 [mEh]      -0.00008109 [kcal/mol]      -0.00033926 [kJ/mol]
      Exch-Disp20 (SS)              0.00000000 [mEh]       0.00000000 [kcal/mol]       0.00000000 [kJ/mol]
      Exch-Disp20 (OS)              0.00000000 [mEh]       0.00000000 [kcal/mol]       0.00000000 [kJ/mol]

  Total HF                         -0.04583407 [mEh]      -0.02876131 [kcal/mol]      -0.12033734 [kJ/mol]
  Total SAPT0                      -0.04609251 [mEh]      -0.02892348 [kcal/mol]      -0.12101586 [kJ/mol]

  Special recipe for scaled SAPT0 (see Manual):
    Electrostatics sSAPT0          -0.04575148 [mEh]      -0.02870949 [kcal/mol]      -0.12012050 [kJ/mol]
    Exchange sSAPT0                 0.00000000 [mEh]       0.00000000 [kcal/mol]       0.00000000 [kJ/mol]
    Induction sSAPT0               -0.00008259 [mEh]      -0.00005183 [kcal/mol]      -0.00021684 [kJ/mol]
    Dispersion sSAPT0              -0.00025844 [mEh]      -0.00016217 [kcal/mol]      -0.00067852 [kJ/mol]
  Total sSAPT0                     -0.04609251 [mEh]      -0.02892348 [kcal/mol]      -0.12101586 [kJ/mol]
  --------------------------------------------------------------------------------------------------------

*** tstop() called on ds1 at Tue Sep 14 18:09:10 2021
Module time:
	user time   =      44.52 seconds =       0.74 minutes
	system time =       3.82 seconds =       0.06 minutes
	total time  =          9 seconds =       0.15 minutes
Total time:
	user time   =      99.76 seconds =       1.66 minutes
	system time =       5.09 seconds =       0.08 minutes
	total time  =         21 seconds =       0.35 minutes


Warning! sapt0 does not have an associated derived wavefunction.The returned wavefunction is the dimer SCF wavefunction.


    Psi4 stopped on: Tuesday, 14 September 2021 06:09PM
    Psi4 wall time for execution: 0:00:21.33

*** Psi4 exiting successfully. Buy a developer a beer!
