
    -----------------------------------------------------------------------
          Psi4: An Open-Source Ab Initio Electronic Structure Package
                               Psi4 1.4rc3

                         Git: Rev {HEAD} 080dba6


    D. G. A. Smith, L. A. Burns, A. C. Simmonett, R. M. Parrish,
    M. C. Schieber, R. Galvelis, P. Kraus, H. Kruse, R. Di Remigio,
    A. Alenaizan, A. M. James, S. Lehtola, J. P. Misiewicz, M. Scheurer,
    R. A. Shaw, J. B. Schriber, Y. Xie, Z. L. Glick, D. A. Sirianni,
    J. S. O'Brien, J. M. Waldrop, A. Kumar, E. G. Hohenstein,
    B. P. Pritchard, B. R. Brooks, H. F. Schaefer III, A. Yu. Sokolov,
    K. Patkowski, A. E. DePrince III, U. Bozkaya, R. A. King,
    F. A. Evangelista, J. M. Turney, T. D. Crawford, C. D. Sherrill,
    J. Chem. Phys. 152(18) 184108 (2020). https://doi.org/10.1063/5.0006002

                            Additional Code Authors
    E. T. Seidl, C. L. Janssen, E. F. Valeev, M. L. Leininger,
    J. F. Gonthier, R. M. Richard, H. R. McAlexander, M. Saitow, X. Wang,
    P. Verma, and M. H. Lechner

             Previous Authors, Complete List of Code Contributors,
                       and Citations for Specific Modules
    https://github.com/psi4/psi4/blob/master/codemeta.json
    https://github.com/psi4/psi4/graphs/contributors
    http://psicode.org/psi4manual/master/introduction.html#citing-psifour

    -----------------------------------------------------------------------


    Psi4 started on: Tuesday, 14 September 2021 06:26PM

    Process ID: 5847
    Host:       ds1
    PSIDATADIR: /theoryfs2/ds/csargent/miniconda3/envs/cle/share/psi4
    Memory:     500.0 MiB
    Threads:    6

  ==> Input File <==

--------------------------------------------------------------------------
# PSI4 file produced by CrystaLattE

# Generated from:               imidazole.xyz
# Psithon input for N-mer:      2mer-0+333
# Number of atoms per monomer:  [9, 9]
# Number of replicas:           2
# COM priority:                 1.419803897912e-05
# Minimum COM separations:      21.854
# Separation priority:          2.249984223209e-05
# Minimum monomer separations:  18.745
# Cutoff priority:              6.351933808901e-07
# Nuclear repulsion energy:     359.5446192930684

memory 7 GB

molecule Dimer_0_333 {
  N           -4.29309621      -3.06837431       5.30516231
  N           -2.15847371      -2.92627296       1.72037448
  H           -0.02545587      -6.35903575       2.22046452
  H           -2.68566968      -6.53260241       6.61445954
  H           -4.74388423      -0.00609006       2.75615968
  H           -1.41045540      -2.24723147       0.00000000
  C           -1.43737991      -5.07504848       2.94065891
  C           -2.76900782      -5.14609916       5.13522880
  C           -3.85955036      -1.77728198       3.21093411
--
  N           28.84565259      19.19687839      -2.78690955
  N           30.98027509      19.05477703      -6.37169738
  H           33.11329293      22.48753983      -5.87160734
  H           30.45307912      22.66110648      -1.47761232
  H           28.39486458      16.13459414      -5.33591219
  H           31.72829340      18.37573555      -8.09207186
  C           31.70136889      21.20355256      -5.15141295
  C           30.36974098      21.27460324      -2.95684306
  C           29.27919844      17.90578606      -4.88113775
units = au
no_com
no_reorient
}

set {
  e_convergence 10
  d_convergence 10
  scf_type df
  mp2_type df
  cc_type df
  freeze_core true
}

energy('sapt0/aug-cc-pvdz')

--------------------------------------------------------------------------

  Memory set to   6.519 GiB by Python driver.

Scratch directory: /scratch/csargent/psi4.31446.79897/

Scratch directory: /scratch/csargent/psi4.31446.79897/

  //>>>>>>>>>>>>>>>>>>>>>>>>>>>>>>>>>>>//
  //              Dimer HF             //
  //<<<<<<<<<<<<<<<<<<<<<<<<<<<<<<<<<<<//


*** tstart() called on ds1
*** at Tue Sep 14 18:26:20 2021

   => Loading Basis Set <=

    Name: AUG-CC-PVDZ
    Role: ORBITAL
    Keyword: BASIS
    atoms 1-2, 10-11 entry N          line   218 file /theoryfs2/ds/csargent/miniconda3/envs/cle/share/psi4/basis/aug-cc-pvdz.gbs
    atoms 3-6, 12-15 entry H          line    40 file /theoryfs2/ds/csargent/miniconda3/envs/cle/share/psi4/basis/aug-cc-pvdz.gbs
    atoms 7-9, 16-18 entry C          line   182 file /theoryfs2/ds/csargent/miniconda3/envs/cle/share/psi4/basis/aug-cc-pvdz.gbs


         ---------------------------------------------------------
                                   SCF
               by Justin Turney, Rob Parrish, Andy Simmonett
                          and Daniel G. A. Smith
                              RHF Reference
                        6 Threads,   6675 MiB Core
         ---------------------------------------------------------

  ==> Geometry <==

    Molecular point group: c1
    Full point group: C1

    Geometry (in Bohr), charge = 0, multiplicity = 1:

       Center              X                  Y                   Z               Mass
    ------------   -----------------  -----------------  -----------------  -----------------
         N           -4.293096210000    -3.068374310000     5.305162310000    14.003074004430
         N           -2.158473710000    -2.926272960000     1.720374480000    14.003074004430
         H           -0.025455870000    -6.359035750000     2.220464520000     1.007825032230
         H           -2.685669680000    -6.532602410000     6.614459540000     1.007825032230
         H           -4.743884230000    -0.006090060000     2.756159680000     1.007825032230
         H           -1.410455400000    -2.247231470000     0.000000000000     1.007825032230
         C           -1.437379910000    -5.075048480000     2.940658910000    12.000000000000
         C           -2.769007820000    -5.146099160000     5.135228800000    12.000000000000
         C           -3.859550360000    -1.777281980000     3.210934110000    12.000000000000
         N           28.845652590000    19.196878390000    -2.786909550000    14.003074004430
         N           30.980275090000    19.054777030000    -6.371697380000    14.003074004430
         H           33.113292930000    22.487539830000    -5.871607340000     1.007825032230
         H           30.453079120000    22.661106480000    -1.477612320000     1.007825032230
         H           28.394864580000    16.134594140000    -5.335912190000     1.007825032230
         H           31.728293400000    18.375735550000    -8.092071860000     1.007825032230
         C           31.701368890000    21.203552560000    -5.151412950000    12.000000000000
         C           30.369740980000    21.274603240000    -2.956843060000    12.000000000000
         C           29.279198440000    17.905786060000    -4.881137750000    12.000000000000

  Running in c1 symmetry.

  Rotational constants: A =      0.04753  B =      0.00065  C =      0.00065 [cm^-1]
  Rotational constants: A =   1425.00654  B =     19.58143  C =     19.44101 [MHz]
  Nuclear repulsion =  359.544619418880529

  Charge       = 0
  Multiplicity = 1
  Electrons    = 72
  Nalpha       = 36
  Nbeta        = 36

  ==> Algorithm <==

  SCF Algorithm Type is DF.
  DIIS enabled.
  MOM disabled.
  Fractional occupation disabled.
  Guess Type is SAD.
  Energy threshold   = 1.00e-10
  Density threshold  = 1.00e-10
  Integral threshold = 1.00e-12

  ==> Primary Basis <==

  Basis Set: AUG-CC-PVDZ
    Blend: AUG-CC-PVDZ
    Number of shells: 130
    Number of basis functions: 302
    Number of Cartesian functions: 322
    Spherical Harmonics?: true
    Max angular momentum: 2

   => Loading Basis Set <=

    Name: (AUG-CC-PVDZ AUX)
    Role: JKFIT
    Keyword: DF_BASIS_SCF
    atoms 1-2, 10-11 entry N          line   212 file /theoryfs2/ds/csargent/miniconda3/envs/cle/share/psi4/basis/aug-cc-pvdz-jkfit.gbs
    atoms 3-6, 12-15 entry H          line    70 file /theoryfs2/ds/csargent/miniconda3/envs/cle/share/psi4/basis/aug-cc-pvdz-jkfit.gbs
    atoms 7-9, 16-18 entry C          line   154 file /theoryfs2/ds/csargent/miniconda3/envs/cle/share/psi4/basis/aug-cc-pvdz-jkfit.gbs

  ==> Integral Setup <==

  ==> DiskDFJK: Density-Fitted J/K Matrices <==

    J tasked:                  Yes
    K tasked:                  Yes
    wK tasked:                  No
    OpenMP threads:              6
    Integrals threads:           6
    Memory [MiB]:             5006
    Algorithm:                Core
    Integral Cache:           SAVE
    Schwarz Cutoff:          1E-12
    Fitting Condition:       1E-10

   => Auxiliary Basis Set <=

  Basis Set: (AUG-CC-PVDZ AUX)
    Blend: AUG-CC-PVDZ-JKFIT
    Number of shells: 376
    Number of basis functions: 1116
    Number of Cartesian functions: 1290
    Spherical Harmonics?: true
    Max angular momentum: 3

  Minimum eigenvalue in the overlap matrix is 2.1837063022E-05.
  Reciprocal condition number of the overlap matrix is 1.8394514152E-06.
    Using symmetric orthogonalization.

  ==> Pre-Iterations <==

  SCF Guess: Superposition of Atomic Densities via on-the-fly atomic UHF (no occupation information).

   -------------------------
    Irrep   Nso     Nmo
   -------------------------
     A        302     302
   -------------------------
    Total     302     302
   -------------------------

  ==> Iterations <==

                           Total Energy        Delta E     RMS |[F,P]|

   @DF-RHF iter SAD:  -449.11714339600906   -4.49117e+02   0.00000e+00
   @DF-RHF iter   1:  -449.39610646338696   -2.78963e-01   2.30619e-03 DIIS
   @DF-RHF iter   2:  -449.61061619141145   -2.14510e-01   1.31167e-03 DIIS
   @DF-RHF iter   3:  -449.68336979361254   -7.27536e-02   2.46132e-04 DIIS
   @DF-RHF iter   4:  -449.68674090308321   -3.37111e-03   1.13011e-04 DIIS
   @DF-RHF iter   5:  -449.68734426774375   -6.03365e-04   1.78823e-05 DIIS
   @DF-RHF iter   6:  -449.68737894154884   -3.46738e-05   7.94635e-06 DIIS
   @DF-RHF iter   7:  -449.68738511787444   -6.17633e-06   3.10451e-06 DIIS
   @DF-RHF iter   8:  -449.68738658188681   -1.46401e-06   1.09971e-06 DIIS
   @DF-RHF iter   9:  -449.68738680350287   -2.21616e-07   2.65801e-07 DIIS
   @DF-RHF iter  10:  -449.68738681457745   -1.10746e-08   1.03643e-07 DIIS
   @DF-RHF iter  11:  -449.68738681622926   -1.65181e-09   4.62452e-08 DIIS
   @DF-RHF iter  12:  -449.68738681653309   -3.03828e-10   1.37315e-08 DIIS
   @DF-RHF iter  13:  -449.68738681656038   -2.72848e-11   5.07782e-09 DIIS
   @DF-RHF iter  14:  -449.68738681656339   -3.01270e-12   2.23996e-09 DIIS
   @DF-RHF iter  15:  -449.68738681656401   -6.25278e-13   7.49164e-10 DIIS
   @DF-RHF iter  16:  -449.68738681656379    2.27374e-13   3.36275e-10 DIIS
   @DF-RHF iter  17:  -449.68738681656379    0.00000e+00   7.85579e-11 DIIS
  Energy and wave function converged.


  ==> Post-Iterations <==

    Orbital Energies [Eh]
    ---------------------

    Doubly Occupied:

       1A    -15.637636     2A    -15.636591     3A    -15.551786
       4A    -15.550732     5A    -11.301491     6A    -11.300433
       7A    -11.263698     8A    -11.262689     9A    -11.246186
      10A    -11.245182    11A     -1.353428    12A     -1.352387
      13A     -1.169660    14A     -1.168618    15A     -1.012650
      16A     -1.011622    17A     -0.824951    18A     -0.823911
      19A     -0.804280    20A     -0.803256    21A     -0.761229
      22A     -0.760188    23A     -0.610652    24A     -0.609619
      25A     -0.604519    26A     -0.603477    27A     -0.602469
      28A     -0.601451    29A     -0.571493    30A     -0.570465
      31A     -0.436048    32A     -0.435000    33A     -0.401022
      34A     -0.399984    35A     -0.321234    36A     -0.320209

    Virtual:

      37A      0.024806    38A      0.025851    39A      0.041004
      40A      0.042033    41A      0.049472    42A      0.050456
      43A      0.061325    44A      0.062305    45A      0.088505
      46A      0.089607    47A      0.100789    48A      0.101877
      49A      0.120245    50A      0.121325    51A      0.125078
      52A      0.126037    53A      0.132943    54A      0.133280
      55A      0.133915    56A      0.134221    57A      0.140407
      58A      0.141427    59A      0.156023    60A      0.156930
      61A      0.158006    62A      0.159204    63A      0.171547
      64A      0.172429    65A      0.177620    66A      0.178673
      67A      0.186594    68A      0.187704    69A      0.210980
      70A      0.212052    71A      0.219714    72A      0.220752
      73A      0.231808    74A      0.232838    75A      0.240863
      76A      0.241888    77A      0.261049    78A      0.262066
      79A      0.267245    80A      0.268277    81A      0.277345
      82A      0.278405    83A      0.301174    84A      0.302235
      85A      0.313829    86A      0.314930    87A      0.337680
      88A      0.338657    89A      0.360962    90A      0.361944
      91A      0.370186    92A      0.371218    93A      0.379251
      94A      0.380275    95A      0.387726    96A      0.388768
      97A      0.396549    98A      0.397559    99A      0.416462
     100A      0.417509   101A      0.428447   102A      0.429478
     103A      0.451484   104A      0.452544   105A      0.465781
     106A      0.466836   107A      0.480656   108A      0.481697
     109A      0.485758   110A      0.486749   111A      0.487606
     112A      0.488619   113A      0.551142   114A      0.552195
     115A      0.555832   116A      0.556853   117A      0.567720
     118A      0.568750   119A      0.575890   120A      0.576958
     121A      0.593693   122A      0.594720   123A      0.598391
     124A      0.599414   125A      0.615535   126A      0.616559
     127A      0.636006   128A      0.637005   129A      0.651947
     130A      0.652979   131A      0.668734   132A      0.669747
     133A      0.670790   134A      0.671816   135A      0.677612
     136A      0.678661   137A      0.683349   138A      0.684339
     139A      0.714147   140A      0.715173   141A      0.725202
     142A      0.726234   143A      0.740683   144A      0.741712
     145A      0.762143   146A      0.763179   147A      0.766837
     148A      0.767873   149A      0.790380   150A      0.791402
     151A      0.793017   152A      0.794100   153A      0.809188
     154A      0.810223   155A      0.859844   156A      0.860873
     157A      0.870875   158A      0.871900   159A      0.885210
     160A      0.886242   161A      0.889308   162A      0.890287
     163A      0.953795   164A      0.954834   165A      0.976396
     166A      0.977444   167A      0.997798   168A      0.998841
     169A      1.010143   170A      1.011184   171A      1.016857
     172A      1.017882   173A      1.030109   174A      1.031158
     175A      1.076785   176A      1.077834   177A      1.083982
     178A      1.085034   179A      1.126436   180A      1.127454
     181A      1.139945   182A      1.140972   183A      1.149009
     184A      1.150046   185A      1.166617   186A      1.167644
     187A      1.216886   188A      1.217928   189A      1.260177
     190A      1.261189   191A      1.301996   192A      1.303012
     193A      1.384456   194A      1.385508   195A      1.397583
     196A      1.398624   197A      1.450582   198A      1.451622
     199A      1.502727   200A      1.503766   201A      1.517854
     202A      1.518890   203A      1.573587   204A      1.573743
     205A      1.574600   206A      1.574757   207A      1.595828
     208A      1.596855   209A      1.651603   210A      1.652637
     211A      1.670974   212A      1.671977   213A      1.704750
     214A      1.705757   215A      1.723884   216A      1.724969
     217A      1.782099   218A      1.783116   219A      1.798526
     220A      1.799539   221A      1.806531   222A      1.807536
     223A      1.864388   224A      1.865430   225A      1.880894
     226A      1.881962   227A      1.923823   228A      1.924874
     229A      1.964428   230A      1.965464   231A      2.021454
     232A      2.022481   233A      2.024875   234A      2.025905
     235A      2.072429   236A      2.073457   237A      2.106503
     238A      2.107530   239A      2.126220   240A      2.127231
     241A      2.135425   242A      2.136434   243A      2.168120
     244A      2.169145   245A      2.178256   246A      2.179291
     247A      2.266523   248A      2.267559   249A      2.275395
     250A      2.276443   251A      2.300345   252A      2.301409
     253A      2.331506   254A      2.332552   255A      2.417221
     256A      2.418228   257A      2.496351   258A      2.497398
     259A      2.513465   260A      2.514506   261A      2.544767
     262A      2.545827   263A      2.585194   264A      2.586216
     265A      2.633213   266A      2.634241   267A      2.733557
     268A      2.734563   269A      2.746461   270A      2.747506
     271A      2.766542   272A      2.767563   273A      2.793592
     274A      2.794628   275A      2.802882   276A      2.803924
     277A      2.837081   278A      2.838118   279A      2.866645
     280A      2.867695   281A      2.952178   282A      2.953216
     283A      2.980297   284A      2.981344   285A      3.050656
     286A      3.051673   287A      3.069359   288A      3.070385
     289A      3.198595   290A      3.199644   291A      3.208238
     292A      3.209272   293A      3.334248   294A      3.335296
     295A      3.354014   296A      3.355050   297A      3.517994
     298A      3.519031   299A      3.767733   300A      3.768773
     301A      4.108476   302A      4.109495

    Final Occupation by Irrep:
              A
    DOCC [    36 ]

  @DF-RHF Final Energy:  -449.68738681656379

   => Energetics <=

    Nuclear Repulsion Energy =            359.5446194188805293
    One-Electron Energy =               -1320.6035211398871070
    Two-Electron Energy =                 511.3715149044427903
    Total Energy =                       -449.6873868165637873

Computation Completed


Properties will be evaluated at   0.000000,   0.000000,   0.000000 [a0]

Properties computed using the SCF density matrix

  Nuclear Dipole Moment: [e a0]
     X:   988.1508      Y:   580.6261      Z:   -34.3330

  Electronic Dipole Moment: [e a0]
     X:  -986.5418      Y:  -580.6240      Z:    31.6693

  Dipole Moment: [e a0]
     X:     1.6090      Y:     0.0022      Z:    -2.6638     Total:     3.1120

  Dipole Moment: [D]
     X:     4.0897      Y:     0.0055      Z:    -6.7706     Total:     7.9099


*** tstop() called on ds1 at Tue Sep 14 18:26:24 2021
Module time:
	user time   =      22.11 seconds =       0.37 minutes
	system time =       0.57 seconds =       0.01 minutes
	total time  =          4 seconds =       0.07 minutes
Total time:
	user time   =      22.11 seconds =       0.37 minutes
	system time =       0.57 seconds =       0.01 minutes
	total time  =          4 seconds =       0.07 minutes

  //>>>>>>>>>>>>>>>>>>>>>>>>>>>>>>>>>>>//
  //            Monomer A HF           //
  //<<<<<<<<<<<<<<<<<<<<<<<<<<<<<<<<<<<//


*** tstart() called on ds1
*** at Tue Sep 14 18:26:24 2021

   => Loading Basis Set <=

    Name: AUG-CC-PVDZ
    Role: ORBITAL
    Keyword: BASIS
    atoms 1-2, 10-11 entry N          line   218 file /theoryfs2/ds/csargent/miniconda3/envs/cle/share/psi4/basis/aug-cc-pvdz.gbs
    atoms 3-6, 12-15 entry H          line    40 file /theoryfs2/ds/csargent/miniconda3/envs/cle/share/psi4/basis/aug-cc-pvdz.gbs
    atoms 7-9, 16-18 entry C          line   182 file /theoryfs2/ds/csargent/miniconda3/envs/cle/share/psi4/basis/aug-cc-pvdz.gbs


         ---------------------------------------------------------
                                   SCF
               by Justin Turney, Rob Parrish, Andy Simmonett
                          and Daniel G. A. Smith
                              RHF Reference
                        6 Threads,   6675 MiB Core
         ---------------------------------------------------------

  ==> Geometry <==

    Molecular point group: c1
    Full point group: C1

    Geometry (in Bohr), charge = 0, multiplicity = 1:

       Center              X                  Y                   Z               Mass
    ------------   -----------------  -----------------  -----------------  -----------------
         N           -4.293096210000    -3.068374310000     5.305162310000    14.003074004430
         N           -2.158473710000    -2.926272960000     1.720374480000    14.003074004430
         H           -0.025455870000    -6.359035750000     2.220464520000     1.007825032230
         H           -2.685669680000    -6.532602410000     6.614459540000     1.007825032230
         H           -4.743884230000    -0.006090060000     2.756159680000     1.007825032230
         H           -1.410455400000    -2.247231470000     0.000000000000     1.007825032230
         C           -1.437379910000    -5.075048480000     2.940658910000    12.000000000000
         C           -2.769007820000    -5.146099160000     5.135228800000    12.000000000000
         C           -3.859550360000    -1.777281980000     3.210934110000    12.000000000000
      Gh(N)          28.845652590000    19.196878390000    -2.786909550000    14.003074004430
      Gh(N)          30.980275090000    19.054777030000    -6.371697380000    14.003074004430
      Gh(H)          33.113292930000    22.487539830000    -5.871607340000     1.007825032230
      Gh(H)          30.453079120000    22.661106480000    -1.477612320000     1.007825032230
      Gh(H)          28.394864580000    16.134594140000    -5.335912190000     1.007825032230
      Gh(H)          31.728293400000    18.375735550000    -8.092071860000     1.007825032230
      Gh(C)          31.701368890000    21.203552560000    -5.151412950000    12.000000000000
      Gh(C)          30.369740980000    21.274603240000    -2.956843060000    12.000000000000
      Gh(C)          29.279198440000    17.905786060000    -4.881137750000    12.000000000000

  Running in c1 symmetry.

  Rotational constants: A =      0.04753  B =      0.00065  C =      0.00065 [cm^-1]
  Rotational constants: A =   1425.00654  B =     19.58143  C =     19.44101 [MHz]
  Nuclear repulsion =  164.086695994184396

  Charge       = 0
  Multiplicity = 1
  Electrons    = 36
  Nalpha       = 18
  Nbeta        = 18

  ==> Algorithm <==

  SCF Algorithm Type is DF.
  DIIS enabled.
  MOM disabled.
  Fractional occupation disabled.
  Guess Type is SAD.
  Energy threshold   = 1.00e-10
  Density threshold  = 1.00e-10
  Integral threshold = 1.00e-12

  ==> Primary Basis <==

  Basis Set: AUG-CC-PVDZ
    Blend: AUG-CC-PVDZ
    Number of shells: 130
    Number of basis functions: 302
    Number of Cartesian functions: 322
    Spherical Harmonics?: true
    Max angular momentum: 2

   => Loading Basis Set <=

    Name: (AUG-CC-PVDZ AUX)
    Role: JKFIT
    Keyword: DF_BASIS_SCF
    atoms 1-2, 10-11 entry N          line   212 file /theoryfs2/ds/csargent/miniconda3/envs/cle/share/psi4/basis/aug-cc-pvdz-jkfit.gbs
    atoms 3-6, 12-15 entry H          line    70 file /theoryfs2/ds/csargent/miniconda3/envs/cle/share/psi4/basis/aug-cc-pvdz-jkfit.gbs
    atoms 7-9, 16-18 entry C          line   154 file /theoryfs2/ds/csargent/miniconda3/envs/cle/share/psi4/basis/aug-cc-pvdz-jkfit.gbs

  ==> Integral Setup <==

  ==> DiskDFJK: Density-Fitted J/K Matrices <==

    J tasked:                  Yes
    K tasked:                  Yes
    wK tasked:                  No
    OpenMP threads:              6
    Integrals threads:           6
    Memory [MiB]:             5006
    Algorithm:                Core
    Integral Cache:           LOAD
    Schwarz Cutoff:          1E-12
    Fitting Condition:       1E-10

   => Auxiliary Basis Set <=

  Basis Set: (AUG-CC-PVDZ AUX)
    Blend: AUG-CC-PVDZ-JKFIT
    Number of shells: 376
    Number of basis functions: 1116
    Number of Cartesian functions: 1290
    Spherical Harmonics?: true
    Max angular momentum: 3

  Minimum eigenvalue in the overlap matrix is 2.1837063022E-05.
  Reciprocal condition number of the overlap matrix is 1.8394514152E-06.
    Using symmetric orthogonalization.

  ==> Pre-Iterations <==

  SCF Guess: Superposition of Atomic Densities via on-the-fly atomic UHF (no occupation information).

   -------------------------
    Irrep   Nso     Nmo
   -------------------------
     A        302     302
   -------------------------
    Total     302     302
   -------------------------

  ==> Iterations <==

                           Total Energy        Delta E     RMS |[F,P]|

   @DF-RHF iter SAD:  -224.55857169604158   -2.24559e+02   0.00000e+00
   @DF-RHF iter   1:  -224.69806464895530   -1.39493e-01   1.63067e-03 DIIS
   @DF-RHF iter   2:  -224.80532026738399   -1.07256e-01   9.27384e-04 DIIS
   @DF-RHF iter   3:  -224.84168817130336   -3.63679e-02   1.74019e-04 DIIS
   @DF-RHF iter   4:  -224.84337342337432   -1.68525e-03   7.98972e-05 DIIS
   @DF-RHF iter   5:  -224.84367500408777   -3.01581e-04   1.26452e-05 DIIS
   @DF-RHF iter   6:  -224.84369234112125   -1.73370e-05   5.61871e-06 DIIS
   @DF-RHF iter   7:  -224.84369542919092   -3.08807e-06   2.19503e-06 DIIS
   @DF-RHF iter   8:  -224.84369616110880   -7.31918e-07   7.77587e-07 DIIS
   @DF-RHF iter   9:  -224.84369627190313   -1.10794e-07   1.87961e-07 DIIS
   @DF-RHF iter  10:  -224.84369627743882   -5.53570e-09   7.33125e-08 DIIS
   @DF-RHF iter  11:  -224.84369627826513   -8.26304e-10   3.26918e-08 DIIS
   @DF-RHF iter  12:  -224.84369627841681   -1.51687e-10   9.70884e-09 DIIS
   @DF-RHF iter  13:  -224.84369627843040   -1.35856e-11   3.58840e-09 DIIS
   @DF-RHF iter  14:  -224.84369627843219   -1.79057e-12   1.58275e-09 DIIS
   @DF-RHF iter  15:  -224.84369627843236   -1.70530e-13   5.27556e-10 DIIS
   @DF-RHF iter  16:  -224.84369627843236    0.00000e+00   2.34517e-10 DIIS
   @DF-RHF iter  17:  -224.84369627843245   -8.52651e-14   4.71137e-11 DIIS
  Energy and wave function converged.


  ==> Post-Iterations <==

    Orbital Energies [Eh]
    ---------------------

    Doubly Occupied:

       1A    -15.637071     2A    -15.551216     3A    -11.300916
       4A    -11.263160     5A    -11.245653     6A     -1.352867
       7A     -1.169098     8A     -1.012098     9A     -0.824390
      10A     -0.803731    11A     -0.760666    12A     -0.610096
      13A     -0.603958    14A     -0.601922    15A     -0.570942
      16A     -0.435483    17A     -0.400464    18A     -0.320685

    Virtual:

      19A      0.022118    20A      0.025388    21A      0.039595
      22A      0.041580    23A      0.043204    24A      0.049997
      25A      0.061864    26A      0.067231    27A      0.076073
      28A      0.085709    29A      0.089096    30A      0.097100
      31A      0.101397    32A      0.120831    33A      0.124164
      34A      0.124625    35A      0.125577    36A      0.126432
      37A      0.126806    38A      0.133472    39A      0.133581
      40A      0.133773    41A      0.137709    42A      0.140942
      43A      0.156349    44A      0.156500    45A      0.158699
      46A      0.171989    47A      0.178189    48A      0.187224
      49A      0.191699    50A      0.207294    51A      0.208928
      52A      0.211559    53A      0.212059    54A      0.219818
      55A      0.220268    56A      0.222135    57A      0.232359
      58A      0.232659    59A      0.241408    60A      0.261605
      61A      0.267803    62A      0.271667    63A      0.277911
      64A      0.298910    65A      0.301746    66A      0.306005
      67A      0.314442    68A      0.318801    69A      0.338197
      70A      0.359683    71A      0.361488    72A      0.370745
      73A      0.375118    74A      0.379800    75A      0.388291
      76A      0.392982    77A      0.397097    78A      0.417031
      79A      0.427027    80A      0.429000    81A      0.434812
      82A      0.439945    83A      0.448585    84A      0.451692
      85A      0.452059    86A      0.466350    87A      0.467715
      88A      0.480592    89A      0.481229    90A      0.486283
      91A      0.488151    92A      0.516911    93A      0.520147
      94A      0.535504    95A      0.537809    96A      0.542713
      97A      0.551710    98A      0.555384    99A      0.556382
     100A      0.568280   101A      0.576474   102A      0.578940
     103A      0.587117   104A      0.594249   105A      0.598939
     106A      0.606068   107A      0.611589   108A      0.616080
     109A      0.617905   110A      0.636538   111A      0.639369
     112A      0.652504   113A      0.669282   114A      0.671337
     115A      0.677215   116A      0.678185   117A      0.683373
     118A      0.683874   119A      0.710763   120A      0.714698
     121A      0.725758   122A      0.735717   123A      0.741238
     124A      0.755693   125A      0.762698   126A      0.767400
     127A      0.790929   128A      0.793606   129A      0.797813
     130A      0.809747   131A      0.810065   132A      0.811994
     133A      0.822896   134A      0.836218   135A      0.859224
     136A      0.860398   137A      0.871425   138A      0.885765
     139A      0.886136   140A      0.889823   141A      0.909334
     142A      0.919240   143A      0.926505   144A      0.954351
     145A      0.968328   146A      0.976964   147A      0.991418
     148A      0.998360   149A      1.010706   150A      1.015037
     151A      1.017404   152A      1.030676   153A      1.058633
     154A      1.077353   155A      1.078204   156A      1.084552
     157A      1.103250   158A      1.115625   159A      1.126983
     160A      1.132064   161A      1.140497   162A      1.149565
     163A      1.167170   164A      1.170500   165A      1.173653
     166A      1.197148   167A      1.210174   168A      1.217445
     169A      1.260721   170A      1.277619   171A      1.290238
     172A      1.296596   173A      1.302539   174A      1.312161
     175A      1.317706   176A      1.347181   177A      1.383703
     178A      1.385028   179A      1.398145   180A      1.451143
     181A      1.494519   182A      1.503288   183A      1.515432
     184A      1.518410   185A      1.540952   186A      1.574127
     187A      1.574285   188A      1.596381   189A      1.652159
     190A      1.660554   191A      1.671505   192A      1.705286
     193A      1.724477   194A      1.782643   195A      1.799067
     196A      1.807063   197A      1.864950   198A      1.881477
     199A      1.924391   200A      1.964987   201A      2.022005
     202A      2.025429   203A      2.039347   204A      2.072981
     205A      2.100683   206A      2.107054   207A      2.119044
     208A      2.126759   209A      2.131039   210A      2.135965
     211A      2.149164   212A      2.168670   213A      2.178815
     214A      2.184832   215A      2.229407   216A      2.252439
     217A      2.267082   218A      2.275963   219A      2.300924
     220A      2.308375   221A      2.326839   222A      2.332072
     223A      2.376488   224A      2.405290   225A      2.413106
     226A      2.417758   227A      2.455481   228A      2.470534
     229A      2.493652   230A      2.496919   231A      2.514025
     232A      2.525561   233A      2.545198   234A      2.545345
     235A      2.576634   236A      2.585743   237A      2.599637
     238A      2.633765   239A      2.695994   240A      2.734093
     241A      2.747025   242A      2.767089   243A      2.790089
     244A      2.794149   245A      2.803444   246A      2.828665
     247A      2.837641   248A      2.867213   249A      2.895534
     250A      2.933100   251A      2.949220   252A      2.952738
     253A      2.980862   254A      3.043290   255A      3.051201
     256A      3.069910   257A      3.076003   258A      3.131682
     259A      3.159436   260A      3.182783   261A      3.199163
     262A      3.208795   263A      3.213221   264A      3.334816
     265A      3.340684   266A      3.354572   267A      3.354572
     268A      3.362746   269A      3.458484   270A      3.494280
     271A      3.518552   272A      3.569415   273A      3.608764
     274A      3.707073   275A      3.726566   276A      3.768294
     277A      3.778227   278A      3.798019   279A      3.857805
     280A      3.870560   281A      4.003728   282A      4.109022
     283A      4.212587   284A      4.636608   285A      4.638670
     286A      4.695840   287A      4.771648   288A      4.879925
     289A      5.021277   290A      5.254535   291A      5.373051
     292A      5.494695   293A      5.610256   294A      5.716139
     295A      5.883770   296A      6.089547   297A      6.198012
     298A     18.255385   299A     18.589942   300A     19.300346
     301A     25.311787   302A     25.453113

    Final Occupation by Irrep:
              A
    DOCC [    18 ]

  @DF-RHF Final Energy:  -224.84369627843245

   => Energetics <=

    Nuclear Repulsion Energy =            164.0866959941843959
    One-Electron Energy =                -628.9319562983703236
    Two-Electron Energy =                 240.0015640257534528
    Total Energy =                       -224.8436962784324464

Computation Completed


Properties will be evaluated at   0.000000,   0.000000,   0.000000 [a0]

Properties computed using the SCF density matrix

  Nuclear Dipole Moment: [e a0]
     X:  -102.4221      Y:  -129.0981      Z:   128.4908

  Electronic Dipole Moment: [e a0]
     X:   103.2259      Y:   129.2613      Z:  -129.8232

  Dipole Moment: [e a0]
     X:     0.8038      Y:     0.1633      Z:    -1.3324     Total:     1.5646

  Dipole Moment: [D]
     X:     2.0431      Y:     0.4150      Z:    -3.3867     Total:     3.9769


*** tstop() called on ds1 at Tue Sep 14 18:26:28 2021
Module time:
	user time   =      15.52 seconds =       0.26 minutes
	system time =       0.32 seconds =       0.01 minutes
	total time  =          4 seconds =       0.07 minutes
Total time:
	user time   =      37.87 seconds =       0.63 minutes
	system time =       0.90 seconds =       0.02 minutes
	total time  =          8 seconds =       0.13 minutes

  //>>>>>>>>>>>>>>>>>>>>>>>>>>>>>>>>>>>//
  //            Monomer B HF           //
  //<<<<<<<<<<<<<<<<<<<<<<<<<<<<<<<<<<<//


*** tstart() called on ds1
*** at Tue Sep 14 18:26:28 2021

   => Loading Basis Set <=

    Name: AUG-CC-PVDZ
    Role: ORBITAL
    Keyword: BASIS
    atoms 1-2, 10-11 entry N          line   218 file /theoryfs2/ds/csargent/miniconda3/envs/cle/share/psi4/basis/aug-cc-pvdz.gbs
    atoms 3-6, 12-15 entry H          line    40 file /theoryfs2/ds/csargent/miniconda3/envs/cle/share/psi4/basis/aug-cc-pvdz.gbs
    atoms 7-9, 16-18 entry C          line   182 file /theoryfs2/ds/csargent/miniconda3/envs/cle/share/psi4/basis/aug-cc-pvdz.gbs


         ---------------------------------------------------------
                                   SCF
               by Justin Turney, Rob Parrish, Andy Simmonett
                          and Daniel G. A. Smith
                              RHF Reference
                        6 Threads,   6675 MiB Core
         ---------------------------------------------------------

  ==> Geometry <==

    Molecular point group: c1
    Full point group: C1

    Geometry (in Bohr), charge = 0, multiplicity = 1:

       Center              X                  Y                   Z               Mass
    ------------   -----------------  -----------------  -----------------  -----------------
      Gh(N)          -4.293096210000    -3.068374310000     5.305162310000    14.003074004430
      Gh(N)          -2.158473710000    -2.926272960000     1.720374480000    14.003074004430
      Gh(H)          -0.025455870000    -6.359035750000     2.220464520000     1.007825032230
      Gh(H)          -2.685669680000    -6.532602410000     6.614459540000     1.007825032230
      Gh(H)          -4.743884230000    -0.006090060000     2.756159680000     1.007825032230
      Gh(H)          -1.410455400000    -2.247231470000     0.000000000000     1.007825032230
      Gh(C)          -1.437379910000    -5.075048480000     2.940658910000    12.000000000000
      Gh(C)          -2.769007820000    -5.146099160000     5.135228800000    12.000000000000
      Gh(C)          -3.859550360000    -1.777281980000     3.210934110000    12.000000000000
         N           28.845652590000    19.196878390000    -2.786909550000    14.003074004430
         N           30.980275090000    19.054777030000    -6.371697380000    14.003074004430
         H           33.113292930000    22.487539830000    -5.871607340000     1.007825032230
         H           30.453079120000    22.661106480000    -1.477612320000     1.007825032230
         H           28.394864580000    16.134594140000    -5.335912190000     1.007825032230
         H           31.728293400000    18.375735550000    -8.092071860000     1.007825032230
         C           31.701368890000    21.203552560000    -5.151412950000    12.000000000000
         C           30.369740980000    21.274603240000    -2.956843060000    12.000000000000
         C           29.279198440000    17.905786060000    -4.881137750000    12.000000000000

  Running in c1 symmetry.

  Rotational constants: A =      0.04753  B =      0.00065  C =      0.00065 [cm^-1]
  Rotational constants: A =   1425.00654  B =     19.58143  C =     19.44101 [MHz]
  Nuclear repulsion =  164.086695984495435

  Charge       = 0
  Multiplicity = 1
  Electrons    = 36
  Nalpha       = 18
  Nbeta        = 18

  ==> Algorithm <==

  SCF Algorithm Type is DF.
  DIIS enabled.
  MOM disabled.
  Fractional occupation disabled.
  Guess Type is SAD.
  Energy threshold   = 1.00e-10
  Density threshold  = 1.00e-10
  Integral threshold = 1.00e-12

  ==> Primary Basis <==

  Basis Set: AUG-CC-PVDZ
    Blend: AUG-CC-PVDZ
    Number of shells: 130
    Number of basis functions: 302
    Number of Cartesian functions: 322
    Spherical Harmonics?: true
    Max angular momentum: 2

   => Loading Basis Set <=

    Name: (AUG-CC-PVDZ AUX)
    Role: JKFIT
    Keyword: DF_BASIS_SCF
    atoms 1-2, 10-11 entry N          line   212 file /theoryfs2/ds/csargent/miniconda3/envs/cle/share/psi4/basis/aug-cc-pvdz-jkfit.gbs
    atoms 3-6, 12-15 entry H          line    70 file /theoryfs2/ds/csargent/miniconda3/envs/cle/share/psi4/basis/aug-cc-pvdz-jkfit.gbs
    atoms 7-9, 16-18 entry C          line   154 file /theoryfs2/ds/csargent/miniconda3/envs/cle/share/psi4/basis/aug-cc-pvdz-jkfit.gbs

  ==> Integral Setup <==

  ==> DiskDFJK: Density-Fitted J/K Matrices <==

    J tasked:                  Yes
    K tasked:                  Yes
    wK tasked:                  No
    OpenMP threads:              6
    Integrals threads:           6
    Memory [MiB]:             5006
    Algorithm:                Core
    Integral Cache:           LOAD
    Schwarz Cutoff:          1E-12
    Fitting Condition:       1E-10

   => Auxiliary Basis Set <=

  Basis Set: (AUG-CC-PVDZ AUX)
    Blend: AUG-CC-PVDZ-JKFIT
    Number of shells: 376
    Number of basis functions: 1116
    Number of Cartesian functions: 1290
    Spherical Harmonics?: true
    Max angular momentum: 3

  Minimum eigenvalue in the overlap matrix is 2.1837063022E-05.
  Reciprocal condition number of the overlap matrix is 1.8394514152E-06.
    Using symmetric orthogonalization.

  ==> Pre-Iterations <==

  SCF Guess: Superposition of Atomic Densities via on-the-fly atomic UHF (no occupation information).

   -------------------------
    Irrep   Nso     Nmo
   -------------------------
     A        302     302
   -------------------------
    Total     302     302
   -------------------------

  ==> Iterations <==

                           Total Energy        Delta E     RMS |[F,P]|

   @DF-RHF iter SAD:  -224.55857169474982   -2.24559e+02   0.00000e+00
   @DF-RHF iter   1:  -224.69806464803739   -1.39493e-01   1.63067e-03 DIIS
   @DF-RHF iter   2:  -224.80532026667765   -1.07256e-01   9.27384e-04 DIIS
   @DF-RHF iter   3:  -224.84168817060063   -3.63679e-02   1.74019e-04 DIIS
   @DF-RHF iter   4:  -224.84337342268762   -1.68525e-03   7.98972e-05 DIIS
   @DF-RHF iter   5:  -224.84367500340286   -3.01581e-04   1.26452e-05 DIIS
   @DF-RHF iter   6:  -224.84369234043578   -1.73370e-05   5.61871e-06 DIIS
   @DF-RHF iter   7:  -224.84369542850530   -3.08807e-06   2.19503e-06 DIIS
   @DF-RHF iter   8:  -224.84369616042369   -7.31918e-07   7.77587e-07 DIIS
   @DF-RHF iter   9:  -224.84369627121799   -1.10794e-07   1.87961e-07 DIIS
   @DF-RHF iter  10:  -224.84369627675360   -5.53561e-09   7.33125e-08 DIIS
   @DF-RHF iter  11:  -224.84369627758005   -8.26446e-10   3.26918e-08 DIIS
   @DF-RHF iter  12:  -224.84369627773191   -1.51857e-10   9.70884e-09 DIIS
   @DF-RHF iter  13:  -224.84369627774481   -1.29035e-11   3.58840e-09 DIIS
   @DF-RHF iter  14:  -224.84369627774646   -1.64846e-12   1.58275e-09 DIIS
   @DF-RHF iter  15:  -224.84369627774728   -8.24230e-13   5.27556e-10 DIIS
   @DF-RHF iter  16:  -224.84369627774748   -1.98952e-13   2.34517e-10 DIIS
   @DF-RHF iter  17:  -224.84369627774703    4.54747e-13   4.71138e-11 DIIS
  Energy and wave function converged.


  ==> Post-Iterations <==

    Orbital Energies [Eh]
    ---------------------

    Doubly Occupied:

       1A    -15.637071     2A    -15.551216     3A    -11.300916
       4A    -11.263160     5A    -11.245653     6A     -1.352867
       7A     -1.169098     8A     -1.012098     9A     -0.824390
      10A     -0.803731    11A     -0.760666    12A     -0.610096
      13A     -0.603958    14A     -0.601922    15A     -0.570942
      16A     -0.435483    17A     -0.400464    18A     -0.320685

    Virtual:

      19A      0.023142    20A      0.025388    21A      0.040688
      22A      0.041580    23A      0.044117    24A      0.049997
      25A      0.061864    26A      0.068244    27A      0.077143
      28A      0.086781    29A      0.089096    30A      0.098121
      31A      0.101397    32A      0.120831    33A      0.125177
      34A      0.125577    35A      0.125597    36A      0.127411
      37A      0.127838    38A      0.133472    39A      0.133773
      40A      0.134739    41A      0.138665    42A      0.140942
      43A      0.156500    44A      0.157245    45A      0.158699
      46A      0.171988    47A      0.178189    48A      0.187224
      49A      0.192743    50A      0.208365    51A      0.209963
      52A      0.211559    53A      0.213126    54A      0.220268
      55A      0.220888    56A      0.223163    57A      0.232359
      58A      0.233669    59A      0.241408    60A      0.261605
      61A      0.267803    62A      0.272715    63A      0.277911
      64A      0.299979    65A      0.301746    66A      0.307025
      67A      0.314442    68A      0.319829    69A      0.338197
      70A      0.360792    71A      0.361488    72A      0.370745
      73A      0.376059    74A      0.379800    75A      0.388291
      76A      0.394043    77A      0.397097    78A      0.417031
      79A      0.427966    80A      0.429000    81A      0.435767
      82A      0.440983    83A      0.449635    84A      0.452059
      85A      0.452735    86A      0.466350    87A      0.468725
      88A      0.481229    89A      0.481644    90A      0.486283
      91A      0.488151    92A      0.517937    93A      0.521163
      94A      0.536587    95A      0.538854    96A      0.543719
      97A      0.551710    98A      0.556382    99A      0.556449
     100A      0.568280   101A      0.576474   102A      0.579973
     103A      0.588172   104A      0.594249   105A      0.598939
     106A      0.607039   107A      0.612689   108A      0.616080
     109A      0.618949   110A      0.636538   111A      0.640363
     112A      0.652504   113A      0.669282   114A      0.671337
     115A      0.678185   116A      0.678241   117A      0.683874
     118A      0.684377   119A      0.711804   120A      0.714698
     121A      0.725758   122A      0.736706   123A      0.741238
     124A      0.756752   125A      0.762698   126A      0.767400
     127A      0.790929   128A      0.793606   129A      0.798848
     130A      0.809747   131A      0.811093   132A      0.813106
     133A      0.823862   134A      0.837212   135A      0.860219
     136A      0.860397   137A      0.871425   138A      0.885765
     139A      0.887171   140A      0.889823   141A      0.910359
     142A      0.920277   143A      0.927530   144A      0.954351
     145A      0.969359   146A      0.976964   147A      0.992462
     148A      0.998360   149A      1.010706   150A      1.016070
     151A      1.017404   152A      1.030676   153A      1.059618
     154A      1.077353   155A      1.079251   156A      1.084552
     157A      1.104289   158A      1.116634   159A      1.126983
     160A      1.133107   161A      1.140497   162A      1.149565
     163A      1.167170   164A      1.171513   165A      1.174716
     166A      1.198205   167A      1.211226   168A      1.217445
     169A      1.260721   170A      1.278676   171A      1.291299
     172A      1.297638   173A      1.302539   174A      1.313206
     175A      1.318753   176A      1.348225   177A      1.384744
     178A      1.385028   179A      1.398145   180A      1.451143
     181A      1.495573   182A      1.503288   183A      1.516491
     184A      1.518410   185A      1.541990   186A      1.574127
     187A      1.574285   188A      1.596381   189A      1.652159
     190A      1.661588   191A      1.671505   192A      1.705286
     193A      1.724477   194A      1.782643   195A      1.799067
     196A      1.807063   197A      1.864950   198A      1.881477
     199A      1.924391   200A      1.964987   201A      2.022005
     202A      2.025429   203A      2.040334   204A      2.072981
     205A      2.101745   206A      2.107054   207A      2.120134
     208A      2.126759   209A      2.132053   210A      2.135965
     211A      2.150172   212A      2.168670   213A      2.178815
     214A      2.185759   215A      2.230420   216A      2.253443
     217A      2.267082   218A      2.275963   219A      2.300924
     220A      2.309364   221A      2.327894   222A      2.332072
     223A      2.377586   224A      2.406341   225A      2.414077
     226A      2.417758   227A      2.456465   228A      2.471574
     229A      2.494660   230A      2.496919   231A      2.514025
     232A      2.526638   233A      2.545345   234A      2.546230
     235A      2.577617   236A      2.585743   237A      2.600633
     238A      2.633765   239A      2.696987   240A      2.734093
     241A      2.747025   242A      2.767089   243A      2.791192
     244A      2.794149   245A      2.803444   246A      2.829632
     247A      2.837641   248A      2.867213   249A      2.896626
     250A      2.934065   251A      2.950219   252A      2.952738
     253A      2.980862   254A      3.044366   255A      3.051201
     256A      3.069910   257A      3.077038   258A      3.132774
     259A      3.160504   260A      3.183812   261A      3.199163
     262A      3.208795   263A      3.214243   264A      3.334816
     265A      3.341707   266A      3.354572   267A      3.355623
     268A      3.363746   269A      3.459541   270A      3.495346
     271A      3.518552   272A      3.570465   273A      3.609811
     274A      3.708121   275A      3.727599   276A      3.768294
     277A      3.779262   278A      3.799075   279A      3.858815
     280A      3.871621   281A      4.004773   282A      4.109022
     283A      4.213656   284A      4.637626   285A      4.639707
     286A      4.696859   287A      4.772706   288A      4.880972
     289A      5.022311   290A      5.255594   291A      5.374089
     292A      5.495738   293A      5.611260   294A      5.717178
     295A      5.884834   296A      6.090594   297A      6.199075
     298A     18.256355   299A     18.591068   300A     19.301314
     301A     25.312852   302A     25.454171

    Final Occupation by Irrep:
              A
    DOCC [    18 ]

  @DF-RHF Final Energy:  -224.84369627774703

   => Energetics <=

    Nuclear Repulsion Energy =            164.0866959844954351
    One-Electron Energy =                -628.9319562751313697
    Two-Electron Energy =                 240.0015640128888776
    Total Energy =                       -224.8436962777470285

Computation Completed


Properties will be evaluated at   0.000000,   0.000000,   0.000000 [a0]

Properties computed using the SCF density matrix

  Nuclear Dipole Moment: [e a0]
     X:  1090.5729      Y:   709.7242      Z:  -162.8238

  Electronic Dipole Moment: [e a0]
     X: -1089.7691      Y:  -709.8875      Z:   161.4914

  Dipole Moment: [e a0]
     X:     0.8038      Y:    -0.1633      Z:    -1.3324     Total:     1.5646

  Dipole Moment: [D]
     X:     2.0431      Y:    -0.4150      Z:    -3.3867     Total:     3.9769


*** tstop() called on ds1 at Tue Sep 14 18:26:31 2021
Module time:
	user time   =      15.49 seconds =       0.26 minutes
	system time =       0.34 seconds =       0.01 minutes
	total time  =          3 seconds =       0.05 minutes
Total time:
	user time   =      53.55 seconds =       0.89 minutes
	system time =       1.24 seconds =       0.02 minutes
	total time  =         11 seconds =       0.18 minutes
  Constructing Basis Sets for SAPT...

   => Loading Basis Set <=

    Name: (AUG-CC-PVDZ AUX)
    Role: RIFIT
    Keyword: DF_BASIS_SAPT
    atoms 1-2, 10-11 entry N          line   158 file /theoryfs2/ds/csargent/miniconda3/envs/cle/share/psi4/basis/aug-cc-pvdz-ri.gbs
    atoms 3-6, 12-15 entry H          line    30 file /theoryfs2/ds/csargent/miniconda3/envs/cle/share/psi4/basis/aug-cc-pvdz-ri.gbs
    atoms 7-9, 16-18 entry C          line   112 file /theoryfs2/ds/csargent/miniconda3/envs/cle/share/psi4/basis/aug-cc-pvdz-ri.gbs


  //>>>>>>>>>>>>>>>>>>>>>>>>>>>>>>>>>>>//
  //               SAPT0               //
  //<<<<<<<<<<<<<<<<<<<<<<<<<<<<<<<<<<<//


*** tstart() called on ds1
*** at Tue Sep 14 18:26:31 2021

        SAPT0
    Ed Hohenstein
     6 June 2009

      Orbital Information
  --------------------------
    NSO        =       302
    NMO        =       302
    NRI        =       904
    NOCC A     =        18
    NOCC B     =        18
    FOCC A     =         5
    FOCC B     =         5
    NVIR A     =       284
    NVIR B     =       284

    Elst10,r            =     0.000005782389 [Eh]
    Exch10              =    -0.000000000000 [Eh]
    Exch10 (S^2)        =    -0.000000000000 [Eh]

    Iter     Energy [mEh]          dE [mEh]         Residual      Time [s]
       1      -0.00001804       0.000018043       0.038763633             1
       2      -0.00001641      -0.000001630       0.008474232             1
       3      -0.00001763       0.000001213       0.004023462             1
       4      -0.00001791       0.000000280       0.000923859             1
       5      -0.00001784      -0.000000068       0.000465766             1
       6      -0.00001783      -0.000000007       0.000204907             1
       7      -0.00001784       0.000000008       0.000060098             1
       8      -0.00001784      -0.000000000       0.000021863             1
       9      -0.00001784      -0.000000000       0.000006143             2
      10      -0.00001784      -0.000000000       0.000001684             2
      11      -0.00001784       0.000000000       0.000000677             2

    CHF Iterations converged


    Iter     Energy [mEh]          dE [mEh]         Residual      Time [s]
       1      -0.00002620       0.000026196       0.049031043             0
       2      -0.00002506      -0.000001133       0.013659714             0
       3      -0.00002793       0.000002868       0.004490750             0
       4      -0.00002812       0.000000186       0.002038481             0
       5      -0.00002802      -0.000000094       0.001139340             0
       6      -0.00002799      -0.000000037       0.000320218             1
       7      -0.00002800       0.000000012       0.000080505             1
       8      -0.00002800       0.000000002       0.000028204             1
       9      -0.00002800      -0.000000000       0.000011262             1
      10      -0.00002800      -0.000000000       0.000003082             1
      11      -0.00002800       0.000000000       0.000001171             1
      12      -0.00002800       0.000000000       0.000000329             1

    CHF Iterations converged

    Ind20,r (A<-B)      =    -0.000000017839 [Eh]
    Ind20,r (B<-A)      =    -0.000000027998 [Eh]
    Ind20,r             =    -0.000000045837 [Eh]
    Exch-Ind20,r (A<-B) =     0.000000000000 [Eh]
    Exch-Ind20,r (B<-A) =     0.000000000000 [Eh]
    Exch-Ind20,r        =     0.000000000000 [Eh]
    Disp20              =    -0.000000246953 [Eh]
    Disp20 (SS)         =    -0.000000123476 [Eh]
    Disp20 (OS)         =    -0.000000123476 [Eh]
    Exch-Disp20         =     0.000000000000 [Eh]
    Exch-Disp20 (SS)    =     0.000000000000 [Eh]
    Exch-Disp20 (OS)    =     0.000000000000 [Eh]

    SAPT Results
  --------------------------------------------------------------------------------------------------------
    Electrostatics                  0.00578239 [mEh]       0.00362850 [kcal/mol]       0.01518166 [kJ/mol]
      Elst10,r                      0.00578239 [mEh]       0.00362850 [kcal/mol]       0.01518166 [kJ/mol]

    Exchange                       -0.00000000 [mEh]      -0.00000000 [kcal/mol]      -0.00000000 [kJ/mol]
      Exch10                       -0.00000000 [mEh]      -0.00000000 [kcal/mol]      -0.00000000 [kJ/mol]
      Exch10(S^2)                  -0.00000000 [mEh]      -0.00000000 [kcal/mol]      -0.00000000 [kJ/mol]

    Induction                      -0.00004277 [mEh]      -0.00002684 [kcal/mol]      -0.00011230 [kJ/mol]
      Ind20,r                      -0.00004584 [mEh]      -0.00002876 [kcal/mol]      -0.00012035 [kJ/mol]
      Exch-Ind20,r                  0.00000000 [mEh]       0.00000000 [kcal/mol]       0.00000000 [kJ/mol]
      delta HF,r (2)                0.00000306 [mEh]       0.00000192 [kcal/mol]       0.00000805 [kJ/mol]

    Dispersion                     -0.00024695 [mEh]      -0.00015497 [kcal/mol]      -0.00064837 [kJ/mol]
      Disp20                       -0.00024695 [mEh]      -0.00015497 [kcal/mol]      -0.00064837 [kJ/mol]
      Exch-Disp20                   0.00000000 [mEh]       0.00000000 [kcal/mol]       0.00000000 [kJ/mol]
      Disp20 (SS)                  -0.00012348 [mEh]      -0.00007748 [kcal/mol]      -0.00032419 [kJ/mol]
      Disp20 (OS)                  -0.00012348 [mEh]      -0.00007748 [kcal/mol]      -0.00032419 [kJ/mol]
      Exch-Disp20 (SS)              0.00000000 [mEh]       0.00000000 [kcal/mol]       0.00000000 [kJ/mol]
      Exch-Disp20 (OS)              0.00000000 [mEh]       0.00000000 [kcal/mol]       0.00000000 [kJ/mol]

  Total HF                          0.00573962 [mEh]       0.00360166 [kcal/mol]       0.01506936 [kJ/mol]
  Total SAPT0                       0.00549266 [mEh]       0.00344670 [kcal/mol]       0.01442098 [kJ/mol]

  Special recipe for scaled SAPT0 (see Manual):
    Electrostatics sSAPT0           0.00578239 [mEh]       0.00362850 [kcal/mol]       0.01518166 [kJ/mol]
    Exchange sSAPT0                -0.00000000 [mEh]      -0.00000000 [kcal/mol]      -0.00000000 [kJ/mol]
    Induction sSAPT0               -0.00004277 [mEh]      -0.00002684 [kcal/mol]      -0.00011230 [kJ/mol]
    Dispersion sSAPT0              -0.00024695 [mEh]      -0.00015497 [kcal/mol]      -0.00064837 [kJ/mol]
  Total sSAPT0                      0.00549266 [mEh]       0.00344670 [kcal/mol]       0.01442098 [kJ/mol]
  --------------------------------------------------------------------------------------------------------

*** tstop() called on ds1 at Tue Sep 14 18:26:41 2021
Module time:
	user time   =      44.36 seconds =       0.74 minutes
	system time =       3.90 seconds =       0.06 minutes
	total time  =         10 seconds =       0.17 minutes
Total time:
	user time   =      98.84 seconds =       1.65 minutes
	system time =       5.17 seconds =       0.09 minutes
	total time  =         21 seconds =       0.35 minutes


Warning! sapt0 does not have an associated derived wavefunction.The returned wavefunction is the dimer SCF wavefunction.


    Psi4 stopped on: Tuesday, 14 September 2021 06:26PM
    Psi4 wall time for execution: 0:00:21.30

*** Psi4 exiting successfully. Buy a developer a beer!
