
    -----------------------------------------------------------------------
          Psi4: An Open-Source Ab Initio Electronic Structure Package
                               Psi4 1.4rc3 

                         Git: Rev {HEAD} 080dba6 


    D. G. A. Smith, L. A. Burns, A. C. Simmonett, R. M. Parrish,
    M. C. Schieber, R. Galvelis, P. Kraus, H. Kruse, R. Di Remigio,
    A. Alenaizan, A. M. James, S. Lehtola, J. P. Misiewicz, M. Scheurer,
    R. A. Shaw, J. B. Schriber, Y. Xie, Z. L. Glick, D. A. Sirianni,
    J. S. O'Brien, J. M. Waldrop, A. Kumar, E. G. Hohenstein,
    B. P. Pritchard, B. R. Brooks, H. F. Schaefer III, A. Yu. Sokolov,
    K. Patkowski, A. E. DePrince III, U. Bozkaya, R. A. King,
    F. A. Evangelista, J. M. Turney, T. D. Crawford, C. D. Sherrill,
    J. Chem. Phys. 152(18) 184108 (2020). https://doi.org/10.1063/5.0006002

                            Additional Code Authors
    E. T. Seidl, C. L. Janssen, E. F. Valeev, M. L. Leininger,
    J. F. Gonthier, R. M. Richard, H. R. McAlexander, M. Saitow, X. Wang,
    P. Verma, and M. H. Lechner

             Previous Authors, Complete List of Code Contributors,
                       and Citations for Specific Modules
    https://github.com/psi4/psi4/blob/master/codemeta.json
    https://github.com/psi4/psi4/graphs/contributors
    http://psicode.org/psi4manual/master/introduction.html#citing-psifour

    -----------------------------------------------------------------------


    Psi4 started on: Tuesday, 14 September 2021 05:41PM

    Process ID: 3870
    Host:       ds1
    PSIDATADIR: /theoryfs2/ds/csargent/miniconda3/envs/cle/share/psi4
    Memory:     500.0 MiB
    Threads:    6
    
  ==> Input File <==

--------------------------------------------------------------------------
# PSI4 file produced by CrystaLattE

# Generated from:               imidazole.xyz
# Psithon input for N-mer:      2mer-0+132
# Number of atoms per monomer:  [9, 9]
# Number of replicas:           1
# COM priority:                 5.480136126904e-05
# Minimum COM separations:      13.932 
# Separation priority:          5.986130932552e-05
# Minimum monomer separations:  13.528 
# Cutoff priority:              2.341683966682e-06
# Nuclear repulsion energy:     377.0116730164728

memory 7 GB

molecule Dimer_0_132 {
  N           -4.29309621      -3.06837431       5.30516231 
  N           -2.15847371      -2.92627296       1.72037448 
  H           -0.02545587      -6.35903575       2.22046452 
  H           -2.68566968      -6.53260241       6.61445954 
  H           -4.74388423      -0.00609006       2.75615968 
  H           -1.41045540      -2.24723147       0.00000000 
  C           -1.43737991      -5.07504848       2.94065891 
  C           -2.76900782      -5.14609916       5.13522880 
  C           -3.85955036      -1.77728198       3.21093411 
--
  N           14.96239035      14.12182991      11.49074204 
  N           12.82776785      13.97972855      15.07552988 
  H           10.69475001      17.41249134      14.57543984 
  H           13.35496382      17.58605800      10.18144482 
  H           15.41317837      11.05954565      14.03974468 
  H           12.07974955      13.30068706      16.79590435 
  C           12.10667405      16.12850408      13.85524544 
  C           13.43830196      16.19955476      11.66067555 
  C           14.52884450      12.83073757      13.58497024 
units = au
no_com
no_reorient
}

set {
  e_convergence 10
  d_convergence 10
  scf_type df
  mp2_type df
  cc_type df
  freeze_core true
}

energy('sapt0/aug-cc-pvdz')

--------------------------------------------------------------------------

  Memory set to   6.519 GiB by Python driver.

Scratch directory: /scratch/csargent/psi4.31446.79897/

Scratch directory: /scratch/csargent/psi4.31446.79897/

  //>>>>>>>>>>>>>>>>>>>>>>>>>>>>>>>>>>>//
  //              Dimer HF             //
  //<<<<<<<<<<<<<<<<<<<<<<<<<<<<<<<<<<<//


*** tstart() called on ds1
*** at Tue Sep 14 17:41:29 2021

   => Loading Basis Set <=

    Name: AUG-CC-PVDZ
    Role: ORBITAL
    Keyword: BASIS
    atoms 1-2, 10-11 entry N          line   218 file /theoryfs2/ds/csargent/miniconda3/envs/cle/share/psi4/basis/aug-cc-pvdz.gbs 
    atoms 3-6, 12-15 entry H          line    40 file /theoryfs2/ds/csargent/miniconda3/envs/cle/share/psi4/basis/aug-cc-pvdz.gbs 
    atoms 7-9, 16-18 entry C          line   182 file /theoryfs2/ds/csargent/miniconda3/envs/cle/share/psi4/basis/aug-cc-pvdz.gbs 


         ---------------------------------------------------------
                                   SCF
               by Justin Turney, Rob Parrish, Andy Simmonett
                          and Daniel G. A. Smith
                              RHF Reference
                        6 Threads,   6675 MiB Core
         ---------------------------------------------------------

  ==> Geometry <==

    Molecular point group: c1
    Full point group: C1

    Geometry (in Bohr), charge = 0, multiplicity = 1:

       Center              X                  Y                   Z               Mass       
    ------------   -----------------  -----------------  -----------------  -----------------
         N           -4.293096210000    -3.068374310000     5.305162310000    14.003074004430
         N           -2.158473710000    -2.926272960000     1.720374480000    14.003074004430
         H           -0.025455870000    -6.359035750000     2.220464520000     1.007825032230
         H           -2.685669680000    -6.532602410000     6.614459540000     1.007825032230
         H           -4.743884230000    -0.006090060000     2.756159680000     1.007825032230
         H           -1.410455400000    -2.247231470000     0.000000000000     1.007825032230
         C           -1.437379910000    -5.075048480000     2.940658910000    12.000000000000
         C           -2.769007820000    -5.146099160000     5.135228800000    12.000000000000
         C           -3.859550360000    -1.777281980000     3.210934110000    12.000000000000
         N           14.962390350000    14.121829910000    11.490742040000    14.003074004430
         N           12.827767850000    13.979728550000    15.075529880000    14.003074004430
         H           10.694750010000    17.412491340000    14.575439840000     1.007825032230
         H           13.354963820000    17.586058000000    10.181444820000     1.007825032230
         H           15.413178370000    11.059545650000    14.039744680000     1.007825032230
         H           12.079749550000    13.300687060000    16.795904350000     1.007825032230
         C           12.106674050000    16.128504080000    13.855245440000    12.000000000000
         C           13.438301960000    16.199554760000    11.660675550000    12.000000000000
         C           14.528844500000    12.830737570000    13.584970240000    12.000000000000

  Running in c1 symmetry.

  Rotational constants: A =      0.02144  B =      0.00152  C =      0.00145 [cm^-1]
  Rotational constants: A =    642.86876  B =     45.69996  C =     43.38335 [MHz]
  Nuclear repulsion =  377.011672944876693

  Charge       = 0
  Multiplicity = 1
  Electrons    = 72
  Nalpha       = 36
  Nbeta        = 36

  ==> Algorithm <==

  SCF Algorithm Type is DF.
  DIIS enabled.
  MOM disabled.
  Fractional occupation disabled.
  Guess Type is SAD.
  Energy threshold   = 1.00e-10
  Density threshold  = 1.00e-10
  Integral threshold = 1.00e-12

  ==> Primary Basis <==

  Basis Set: AUG-CC-PVDZ
    Blend: AUG-CC-PVDZ
    Number of shells: 130
    Number of basis functions: 302
    Number of Cartesian functions: 322
    Spherical Harmonics?: true
    Max angular momentum: 2

   => Loading Basis Set <=

    Name: (AUG-CC-PVDZ AUX)
    Role: JKFIT
    Keyword: DF_BASIS_SCF
    atoms 1-2, 10-11 entry N          line   212 file /theoryfs2/ds/csargent/miniconda3/envs/cle/share/psi4/basis/aug-cc-pvdz-jkfit.gbs 
    atoms 3-6, 12-15 entry H          line    70 file /theoryfs2/ds/csargent/miniconda3/envs/cle/share/psi4/basis/aug-cc-pvdz-jkfit.gbs 
    atoms 7-9, 16-18 entry C          line   154 file /theoryfs2/ds/csargent/miniconda3/envs/cle/share/psi4/basis/aug-cc-pvdz-jkfit.gbs 

  ==> Integral Setup <==

  ==> DiskDFJK: Density-Fitted J/K Matrices <==

    J tasked:                  Yes
    K tasked:                  Yes
    wK tasked:                  No
    OpenMP threads:              6
    Integrals threads:           6
    Memory [MiB]:             5006
    Algorithm:                Core
    Integral Cache:           SAVE
    Schwarz Cutoff:          1E-12
    Fitting Condition:       1E-10

   => Auxiliary Basis Set <=

  Basis Set: (AUG-CC-PVDZ AUX)
    Blend: AUG-CC-PVDZ-JKFIT
    Number of shells: 376
    Number of basis functions: 1116
    Number of Cartesian functions: 1290
    Spherical Harmonics?: true
    Max angular momentum: 3

  Minimum eigenvalue in the overlap matrix is 2.1833733382E-05.
  Reciprocal condition number of the overlap matrix is 1.8391680567E-06.
    Using symmetric orthogonalization.

  ==> Pre-Iterations <==

  SCF Guess: Superposition of Atomic Densities via on-the-fly atomic UHF (no occupation information).

   -------------------------
    Irrep   Nso     Nmo    
   -------------------------
     A        302     302 
   -------------------------
    Total     302     302
   -------------------------

  ==> Iterations <==

                           Total Energy        Delta E     RMS |[F,P]|

   @DF-RHF iter SAD:  -449.11714338097613   -4.49117e+02   0.00000e+00 
   @DF-RHF iter   1:  -449.39652741408679   -2.79384e-01   2.30517e-03 DIIS
   @DF-RHF iter   2:  -449.61101176710162   -2.14484e-01   1.30965e-03 DIIS
   @DF-RHF iter   3:  -449.68352741946046   -7.25157e-02   2.45527e-04 DIIS
   @DF-RHF iter   4:  -449.68688780805337   -3.36039e-03   1.12634e-04 DIIS
   @DF-RHF iter   5:  -449.68748710730432   -5.99299e-04   1.78724e-05 DIIS
   @DF-RHF iter   6:  -449.68752172800026   -3.46207e-05   7.93464e-06 DIIS
   @DF-RHF iter   7:  -449.68752789454385   -6.16654e-06   3.10029e-06 DIIS
   @DF-RHF iter   8:  -449.68752935721341   -1.46267e-06   1.09936e-06 DIIS
   @DF-RHF iter   9:  -449.68752957879417   -2.21581e-07   2.64701e-07 DIIS
   @DF-RHF iter  10:  -449.68752958984396   -1.10498e-08   1.02508e-07 DIIS
   @DF-RHF iter  11:  -449.68752959146514   -1.62117e-09   4.62673e-08 DIIS
   @DF-RHF iter  12:  -449.68752959176663   -3.01497e-10   1.36623e-08 DIIS
   @DF-RHF iter  13:  -449.68752959179301   -2.63753e-11   5.05926e-09 DIIS
   @DF-RHF iter  14:  -449.68752959179596   -2.95586e-12   2.23627e-09 DIIS
   @DF-RHF iter  15:  -449.68752959179722   -1.25056e-12   7.44214e-10 DIIS
   @DF-RHF iter  16:  -449.68752959179727   -5.68434e-14   3.30207e-10 DIIS
   @DF-RHF iter  17:  -449.68752959179682    4.54747e-13   6.65499e-11 DIIS
  Energy and wave function converged.


  ==> Post-Iterations <==

    Orbital Energies [Eh]
    ---------------------

    Doubly Occupied:                                                      

       1A    -15.636963     2A    -15.636963     3A    -15.551209  
       4A    -15.551209     5A    -11.300872     6A    -11.300872  
       7A    -11.263113     8A    -11.263113     9A    -11.245631  
      10A    -11.245631    11A     -1.352800    12A     -1.352800  
      13A     -1.169050    14A     -1.169050    15A     -1.012049  
      16A     -1.012049    17A     -0.824314    18A     -0.824314  
      19A     -0.803687    20A     -0.803687    21A     -0.760600  
      22A     -0.760600    23A     -0.610043    24A     -0.610043  
      25A     -0.603885    26A     -0.603885    27A     -0.601849  
      28A     -0.601849    29A     -0.570938    30A     -0.570938  
      31A     -0.435503    32A     -0.435503    33A     -0.400436  
      34A     -0.400436    35A     -0.320640    36A     -0.320640  

    Virtual:                                                              

      37A      0.025809    38A      0.025968    39A      0.041698  
      40A      0.041848    41A      0.049848    42A      0.049918  
      43A      0.061867    44A      0.061944    45A      0.089115  
      46A      0.089294    47A      0.101384    48A      0.101386  
      49A      0.120927    50A      0.120949    51A      0.125607  
      52A      0.125627    53A      0.133606    54A      0.133638  
      55A      0.133723    56A      0.133850    57A      0.140905  
      58A      0.140924    59A      0.156591    60A      0.156643  
      61A      0.158810    62A      0.159055    63A      0.171703  
      64A      0.171775    65A      0.178331    66A      0.178331  
      67A      0.187266    68A      0.187554    69A      0.211538  
      70A      0.211560    71A      0.220310    72A      0.220324  
      73A      0.232341    74A      0.232349    75A      0.241451  
      76A      0.241586    77A      0.261687    78A      0.261743  
      79A      0.267598    80A      0.267645    81A      0.277729  
      82A      0.277892    83A      0.301741    84A      0.301937  
      85A      0.314400    86A      0.314400    87A      0.338184  
      88A      0.338187    89A      0.361588    90A      0.361594  
      91A      0.370861    92A      0.370906    93A      0.379910  
      94A      0.380011    95A      0.388336    96A      0.388496  
      97A      0.397112    98A      0.397286    99A      0.416891  
     100A      0.417113   101A      0.428944   102A      0.428958  
     103A      0.452122   104A      0.452137   105A      0.466411  
     106A      0.466459   107A      0.481361   108A      0.481368  
     109A      0.486316   110A      0.486328   111A      0.488153  
     112A      0.488171   113A      0.551787   114A      0.551792  
     115A      0.556251   116A      0.556687   117A      0.568333  
     118A      0.568358   119A      0.576532   120A      0.576560  
     121A      0.594335   122A      0.594392   123A      0.598994  
     124A      0.599119   125A      0.616061   126A      0.616087  
     127A      0.636574   128A      0.636604   129A      0.652490  
     130A      0.652541   131A      0.669300   132A      0.669319  
     133A      0.671383   134A      0.671383   135A      0.678272  
     136A      0.678310   137A      0.683880   138A      0.683917  
     139A      0.714772   140A      0.714773   141A      0.725885  
     142A      0.725892   143A      0.741265   144A      0.741274  
     145A      0.762700   146A      0.762749   147A      0.767402  
     148A      0.767441   149A      0.790988   150A      0.791009  
     151A      0.793626   152A      0.793698   153A      0.809811  
     154A      0.809856   155A      0.860440   156A      0.860460  
     157A      0.871454   158A      0.871477   159A      0.885764  
     160A      0.885768   161A      0.889848   162A      0.889849  
     163A      0.954402   164A      0.954413   165A      0.977051  
     166A      0.977053   167A      0.998372   168A      0.998406  
     169A      1.010687   170A      1.010693   171A      1.017421  
     172A      1.017426   173A      1.030734   174A      1.030745  
     175A      1.077357   176A      1.077364   177A      1.084601  
     178A      1.084622   179A      1.126988   180A      1.127026  
     181A      1.140479   182A      1.140535   183A      1.149627  
     184A      1.149637   185A      1.167174   186A      1.167223  
     187A      1.217458   188A      1.217462   189A      1.260798  
     190A      1.260812   191A      1.302530   192A      1.302561  
     193A      1.385106   194A      1.385146   195A      1.398132  
     196A      1.398177   197A      1.451185   198A      1.451193  
     199A      1.503312   200A      1.503319   201A      1.518473  
     202A      1.518482   203A      1.574147   204A      1.574188  
     205A      1.574274   206A      1.574299   207A      1.596368  
     208A      1.596509   209A      1.652197   210A      1.652198  
     211A      1.671525   212A      1.671532   213A      1.705293  
     214A      1.705346   215A      1.724516   216A      1.724540  
     217A      1.782698   218A      1.782700   219A      1.799037  
     220A      1.799169   221A      1.807056   222A      1.807067  
     223A      1.864839   224A      1.865126   225A      1.881516  
     226A      1.881571   227A      1.924434   228A      1.924434  
     229A      1.965041   230A      1.965050   231A      2.022079  
     232A      2.022129   233A      2.025480   234A      2.025551  
     235A      2.073041   236A      2.073042   237A      2.107087  
     238A      2.107116   239A      2.126789   240A      2.126798  
     241A      2.135999   242A      2.136001   243A      2.168716  
     244A      2.168741   245A      2.178848   246A      2.178925  
     247A      2.267145   248A      2.267146   249A      2.276006  
     250A      2.276007   251A      2.300978   252A      2.301004  
     253A      2.332122   254A      2.332136   255A      2.417808  
     256A      2.417810   257A      2.497027   258A      2.497045  
     259A      2.514060   260A      2.514068   261A      2.545455  
     262A      2.545504   263A      2.585793   264A      2.585801  
     265A      2.633803   266A      2.633804   267A      2.734111  
     268A      2.734131   269A      2.747065   270A      2.747071  
     271A      2.767127   272A      2.767147   273A      2.794199  
     274A      2.794212   275A      2.803477   276A      2.803481  
     277A      2.837719   278A      2.837740   279A      2.867274  
     280A      2.867274   281A      2.952799   282A      2.952815  
     283A      2.980891   284A      2.980891   285A      3.051244  
     286A      3.051245   287A      3.069950   288A      3.069959  
     289A      3.199222   290A      3.199225   291A      3.208844  
     292A      3.208852   293A      3.334878   294A      3.334879  
     295A      3.354602   296A      3.354617   297A      3.518587  
     298A      3.518592   299A      3.768326   300A      3.768333  
     301A      4.109073   302A      4.109107  

    Final Occupation by Irrep:
              A 
    DOCC [    36 ]

  @DF-RHF Final Energy:  -449.68752959179682

   => Energetics <=

    Nuclear Repulsion Energy =            377.0116729448766932
    One-Electron Energy =               -1355.5440672007080138
    Two-Electron Energy =                 528.8448646640345032
    Total Energy =                       -449.6875295917968742

Computation Completed


Properties will be evaluated at   0.000000,   0.000000,   0.000000 [a0]

Properties computed using the SCF density matrix

  Nuclear Dipole Moment: [e a0]
     X:   384.0946      Y:   397.9244      Z:   604.6526

  Electronic Dipole Moment: [e a0]
     X:  -384.0946      Y:  -397.9244      Z:  -604.6526

  Dipole Moment: [e a0]
     X:     0.0000      Y:    -0.0000      Z:    -0.0000     Total:     0.0000

  Dipole Moment: [D]
     X:     0.0000      Y:    -0.0000      Z:    -0.0000     Total:     0.0000


*** tstop() called on ds1 at Tue Sep 14 17:41:34 2021
Module time:
	user time   =      24.77 seconds =       0.41 minutes
	system time =       0.60 seconds =       0.01 minutes
	total time  =          5 seconds =       0.08 minutes
Total time:
	user time   =      24.77 seconds =       0.41 minutes
	system time =       0.60 seconds =       0.01 minutes
	total time  =          5 seconds =       0.08 minutes

  //>>>>>>>>>>>>>>>>>>>>>>>>>>>>>>>>>>>//
  //            Monomer A HF           //
  //<<<<<<<<<<<<<<<<<<<<<<<<<<<<<<<<<<<//


*** tstart() called on ds1
*** at Tue Sep 14 17:41:34 2021

   => Loading Basis Set <=

    Name: AUG-CC-PVDZ
    Role: ORBITAL
    Keyword: BASIS
    atoms 1-2, 10-11 entry N          line   218 file /theoryfs2/ds/csargent/miniconda3/envs/cle/share/psi4/basis/aug-cc-pvdz.gbs 
    atoms 3-6, 12-15 entry H          line    40 file /theoryfs2/ds/csargent/miniconda3/envs/cle/share/psi4/basis/aug-cc-pvdz.gbs 
    atoms 7-9, 16-18 entry C          line   182 file /theoryfs2/ds/csargent/miniconda3/envs/cle/share/psi4/basis/aug-cc-pvdz.gbs 


         ---------------------------------------------------------
                                   SCF
               by Justin Turney, Rob Parrish, Andy Simmonett
                          and Daniel G. A. Smith
                              RHF Reference
                        6 Threads,   6675 MiB Core
         ---------------------------------------------------------

  ==> Geometry <==

    Molecular point group: c1
    Full point group: C1

    Geometry (in Bohr), charge = 0, multiplicity = 1:

       Center              X                  Y                   Z               Mass       
    ------------   -----------------  -----------------  -----------------  -----------------
         N           -4.293096210000    -3.068374310000     5.305162310000    14.003074004430
         N           -2.158473710000    -2.926272960000     1.720374480000    14.003074004430
         H           -0.025455870000    -6.359035750000     2.220464520000     1.007825032230
         H           -2.685669680000    -6.532602410000     6.614459540000     1.007825032230
         H           -4.743884230000    -0.006090060000     2.756159680000     1.007825032230
         H           -1.410455400000    -2.247231470000     0.000000000000     1.007825032230
         C           -1.437379910000    -5.075048480000     2.940658910000    12.000000000000
         C           -2.769007820000    -5.146099160000     5.135228800000    12.000000000000
         C           -3.859550360000    -1.777281980000     3.210934110000    12.000000000000
      Gh(N)          14.962390350000    14.121829910000    11.490742040000    14.003074004430
      Gh(N)          12.827767850000    13.979728550000    15.075529880000    14.003074004430
      Gh(H)          10.694750010000    17.412491340000    14.575439840000     1.007825032230
      Gh(H)          13.354963820000    17.586058000000    10.181444820000     1.007825032230
      Gh(H)          15.413178370000    11.059545650000    14.039744680000     1.007825032230
      Gh(H)          12.079749550000    13.300687060000    16.795904350000     1.007825032230
      Gh(C)          12.106674050000    16.128504080000    13.855245440000    12.000000000000
      Gh(C)          13.438301960000    16.199554760000    11.660675550000    12.000000000000
      Gh(C)          14.528844500000    12.830737570000    13.584970240000    12.000000000000

  Running in c1 symmetry.

  Rotational constants: A =      0.02144  B =      0.00152  C =      0.00145 [cm^-1]
  Rotational constants: A =    642.86876  B =     45.69996  C =     43.38335 [MHz]
  Nuclear repulsion =  164.086695994184396

  Charge       = 0
  Multiplicity = 1
  Electrons    = 36
  Nalpha       = 18
  Nbeta        = 18

  ==> Algorithm <==

  SCF Algorithm Type is DF.
  DIIS enabled.
  MOM disabled.
  Fractional occupation disabled.
  Guess Type is SAD.
  Energy threshold   = 1.00e-10
  Density threshold  = 1.00e-10
  Integral threshold = 1.00e-12

  ==> Primary Basis <==

  Basis Set: AUG-CC-PVDZ
    Blend: AUG-CC-PVDZ
    Number of shells: 130
    Number of basis functions: 302
    Number of Cartesian functions: 322
    Spherical Harmonics?: true
    Max angular momentum: 2

   => Loading Basis Set <=

    Name: (AUG-CC-PVDZ AUX)
    Role: JKFIT
    Keyword: DF_BASIS_SCF
    atoms 1-2, 10-11 entry N          line   212 file /theoryfs2/ds/csargent/miniconda3/envs/cle/share/psi4/basis/aug-cc-pvdz-jkfit.gbs 
    atoms 3-6, 12-15 entry H          line    70 file /theoryfs2/ds/csargent/miniconda3/envs/cle/share/psi4/basis/aug-cc-pvdz-jkfit.gbs 
    atoms 7-9, 16-18 entry C          line   154 file /theoryfs2/ds/csargent/miniconda3/envs/cle/share/psi4/basis/aug-cc-pvdz-jkfit.gbs 

  ==> Integral Setup <==

  ==> DiskDFJK: Density-Fitted J/K Matrices <==

    J tasked:                  Yes
    K tasked:                  Yes
    wK tasked:                  No
    OpenMP threads:              6
    Integrals threads:           6
    Memory [MiB]:             5006
    Algorithm:                Core
    Integral Cache:           LOAD
    Schwarz Cutoff:          1E-12
    Fitting Condition:       1E-10

   => Auxiliary Basis Set <=

  Basis Set: (AUG-CC-PVDZ AUX)
    Blend: AUG-CC-PVDZ-JKFIT
    Number of shells: 376
    Number of basis functions: 1116
    Number of Cartesian functions: 1290
    Spherical Harmonics?: true
    Max angular momentum: 3

  Minimum eigenvalue in the overlap matrix is 2.1833733382E-05.
  Reciprocal condition number of the overlap matrix is 1.8391680567E-06.
    Using symmetric orthogonalization.

  ==> Pre-Iterations <==

  SCF Guess: Superposition of Atomic Densities via on-the-fly atomic UHF (no occupation information).

   -------------------------
    Irrep   Nso     Nmo    
   -------------------------
     A        302     302 
   -------------------------
    Total     302     302
   -------------------------

  ==> Iterations <==

                           Total Energy        Delta E     RMS |[F,P]|

   @DF-RHF iter SAD:  -224.55857169698760   -2.24559e+02   0.00000e+00 
   @DF-RHF iter   1:  -224.69806465291737   -1.39493e-01   1.63067e-03 DIIS
   @DF-RHF iter   2:  -224.80532027151401   -1.07256e-01   9.27384e-04 DIIS
   @DF-RHF iter   3:  -224.84168817546214   -3.63679e-02   1.74019e-04 DIIS
   @DF-RHF iter   4:  -224.84337342754455   -1.68525e-03   7.98972e-05 DIIS
   @DF-RHF iter   5:  -224.84367500825607   -3.01581e-04   1.26452e-05 DIIS
   @DF-RHF iter   6:  -224.84369234529001   -1.73370e-05   5.61871e-06 DIIS
   @DF-RHF iter   7:  -224.84369543335973   -3.08807e-06   2.19503e-06 DIIS
   @DF-RHF iter   8:  -224.84369616527778   -7.31918e-07   7.77587e-07 DIIS
   @DF-RHF iter   9:  -224.84369627607151   -1.10794e-07   1.87961e-07 DIIS
   @DF-RHF iter  10:  -224.84369628160738   -5.53587e-09   7.33125e-08 DIIS
   @DF-RHF iter  11:  -224.84369628243357   -8.26191e-10   3.26918e-08 DIIS
   @DF-RHF iter  12:  -224.84369628258551   -1.51942e-10   9.70884e-09 DIIS
   @DF-RHF iter  13:  -224.84369628259839   -1.28750e-11   3.58840e-09 DIIS
   @DF-RHF iter  14:  -224.84369628260097   -2.58638e-12   1.58275e-09 DIIS
   @DF-RHF iter  15:  -224.84369628260072    2.55795e-13   5.27556e-10 DIIS
   @DF-RHF iter  16:  -224.84369628260060    1.13687e-13   2.34517e-10 DIIS
   @DF-RHF iter  17:  -224.84369628260094   -3.41061e-13   4.71139e-11 DIIS
  Energy and wave function converged.


  ==> Post-Iterations <==

    Orbital Energies [Eh]
    ---------------------

    Doubly Occupied:                                                      

       1A    -15.637071     2A    -15.551216     3A    -11.300916  
       4A    -11.263160     5A    -11.245653     6A     -1.352867  
       7A     -1.169098     8A     -1.012098     9A     -0.824390  
      10A     -0.803731    11A     -0.760666    12A     -0.610096  
      13A     -0.603958    14A     -0.601922    15A     -0.570942  
      16A     -0.435483    17A     -0.400464    18A     -0.320685  

    Virtual:                                                              

      19A      0.022732    20A      0.025390    21A      0.040242  
      22A      0.041582    23A      0.043781    24A      0.049997  
      25A      0.061864    26A      0.068081    27A      0.076680  
      28A      0.086256    29A      0.089099    30A      0.097738  
      31A      0.101397    32A      0.120829    33A      0.124834  
      34A      0.125061    35A      0.125578    36A      0.126880  
      37A      0.127498    38A      0.133436    39A      0.133764  
      40A      0.134321    41A      0.138318    42A      0.140942  
      43A      0.156501    44A      0.156775    45A      0.158703  
      46A      0.171989    47A      0.178189    48A      0.187224  
      49A      0.192546    50A      0.208097    51A      0.209512  
      52A      0.211558    53A      0.212483    54A      0.220247  
      55A      0.220322    56A      0.222643    57A      0.232359  
      58A      0.233288    59A      0.241410    60A      0.261605  
      61A      0.267803    62A      0.272381    63A      0.277912  
      64A      0.299402    65A      0.301747    66A      0.306579  
      67A      0.314442    68A      0.319397    69A      0.338197  
      70A      0.360324    71A      0.361491    72A      0.370746  
      73A      0.375680    74A      0.379801    75A      0.388293  
      76A      0.393598    77A      0.397097    78A      0.417032  
      79A      0.427523    80A      0.429000    81A      0.435452  
      82A      0.440446    83A      0.449321    84A      0.452059  
      85A      0.452462    86A      0.466350    87A      0.468392  
      88A      0.481176    89A      0.481229    90A      0.486283  
      91A      0.488151    92A      0.517472    93A      0.520819  
      94A      0.536165    95A      0.538581    96A      0.543285  
      97A      0.551710    98A      0.556091    99A      0.556386  
     100A      0.568280   101A      0.576474   102A      0.579711  
     103A      0.587740   104A      0.594250   105A      0.598940  
     106A      0.606555   107A      0.612258   108A      0.616081  
     109A      0.618571   110A      0.636538   111A      0.639948  
     112A      0.652504   113A      0.669282   114A      0.671337  
     115A      0.677861   116A      0.678185   117A      0.683869  
     118A      0.683921   119A      0.711278   120A      0.714698  
     121A      0.725758   122A      0.736250   123A      0.741238  
     124A      0.756394   125A      0.762698   126A      0.767400  
     127A      0.790929   128A      0.793605   129A      0.798465  
     130A      0.809747   131A      0.810694   132A      0.812702  
     133A      0.823446   134A      0.836695   135A      0.859774  
     136A      0.860399   137A      0.871425   138A      0.885765  
     139A      0.886715   140A      0.889823   141A      0.909921  
     142A      0.919825   143A      0.927057   144A      0.954351  
     145A      0.968928   146A      0.976964   147A      0.991986  
     148A      0.998360   149A      1.010706   150A      1.015620  
     151A      1.017404   152A      1.030676   153A      1.059171  
     154A      1.077353   155A      1.078874   156A      1.084552  
     157A      1.103853   158A      1.116251   159A      1.126983  
     160A      1.132791   161A      1.140497   162A      1.149565  
     163A      1.167170   164A      1.171064   165A      1.174277  
     166A      1.197773   167A      1.210829   168A      1.217445  
     169A      1.260721   170A      1.278173   171A      1.290847  
     172A      1.297139   173A      1.302539   174A      1.312779  
     175A      1.318336   176A      1.347748   177A      1.384403  
     178A      1.385029   179A      1.398145   180A      1.451143  
     181A      1.495161   182A      1.503288   183A      1.516073  
     184A      1.518410   185A      1.541592   186A      1.574127  
     187A      1.574285   188A      1.596381   189A      1.652159  
     190A      1.661174   191A      1.671505   192A      1.705286  
     193A      1.724477   194A      1.782643   195A      1.799068  
     196A      1.807063   197A      1.864951   198A      1.881478  
     199A      1.924391   200A      1.964987   201A      2.022006  
     202A      2.025429   203A      2.039879   204A      2.072981  
     205A      2.101307   206A      2.107054   207A      2.119697  
     208A      2.126759   209A      2.131609   210A      2.135965  
     211A      2.149736   212A      2.168670   213A      2.178815  
     214A      2.185296   215A      2.230062   216A      2.252965  
     217A      2.267082   218A      2.275963   219A      2.300924  
     220A      2.308933   221A      2.327430   222A      2.332072  
     223A      2.377146   224A      2.406183   225A      2.413704  
     226A      2.417758   227A      2.456078   228A      2.471176  
     229A      2.494292   230A      2.496919   231A      2.514026  
     232A      2.526229   233A      2.545345   234A      2.545744  
     235A      2.577203   236A      2.585743   237A      2.600191  
     238A      2.633765   239A      2.696673   240A      2.734093  
     241A      2.747025   242A      2.767089   243A      2.790758  
     244A      2.794149   245A      2.803444   246A      2.829161  
     247A      2.837641   248A      2.867213   249A      2.896136  
     250A      2.933664   251A      2.949863   252A      2.952738  
     253A      2.980862   254A      3.043944   255A      3.051201  
     256A      3.069910   257A      3.076624   258A      3.132382  
     259A      3.160084   260A      3.183320   261A      3.199163  
     262A      3.208795   263A      3.213750   264A      3.334816  
     265A      3.341295   266A      3.354572   267A      3.355211  
     268A      3.363334   269A      3.459161   270A      3.494802  
     271A      3.518552   272A      3.570182   273A      3.609247  
     274A      3.707742   275A      3.727184   276A      3.768294  
     277A      3.778874   278A      3.798754   279A      3.858406  
     280A      3.871173   281A      4.004314   282A      4.109022  
     283A      4.213277   284A      4.637187   285A      4.639245  
     286A      4.696380   287A      4.772298   288A      4.880592  
     289A      5.021877   290A      5.255076   291A      5.373630  
     292A      5.495219   293A      5.610841   294A      5.716833  
     295A      5.884398   296A      6.090294   297A      6.198622  
     298A     18.255906   299A     18.590630   300A     19.300867  
     301A     25.312261   302A     25.453882  

    Final Occupation by Irrep:
              A 
    DOCC [    18 ]

  @DF-RHF Final Energy:  -224.84369628260094

   => Energetics <=

    Nuclear Repulsion Energy =            164.0866959941843959
    One-Electron Energy =                -628.9319563234627140
    Two-Electron Energy =                 240.0015640466773448
    Total Energy =                       -224.8436962826009449

Computation Completed


Properties will be evaluated at   0.000000,   0.000000,   0.000000 [a0]

Properties computed using the SCF density matrix

  Nuclear Dipole Moment: [e a0]
     X:  -102.4221      Y:  -129.0981      Z:   128.4908

  Electronic Dipole Moment: [e a0]
     X:   103.2259      Y:   129.2613      Z:  -129.8232

  Dipole Moment: [e a0]
     X:     0.8038      Y:     0.1633      Z:    -1.3324     Total:     1.5646

  Dipole Moment: [D]
     X:     2.0431      Y:     0.4150      Z:    -3.3867     Total:     3.9769


*** tstop() called on ds1 at Tue Sep 14 17:41:38 2021
Module time:
	user time   =      18.17 seconds =       0.30 minutes
	system time =       0.45 seconds =       0.01 minutes
	total time  =          4 seconds =       0.07 minutes
Total time:
	user time   =      42.97 seconds =       0.72 minutes
	system time =       1.05 seconds =       0.02 minutes
	total time  =          9 seconds =       0.15 minutes

  //>>>>>>>>>>>>>>>>>>>>>>>>>>>>>>>>>>>//
  //            Monomer B HF           //
  //<<<<<<<<<<<<<<<<<<<<<<<<<<<<<<<<<<<//


*** tstart() called on ds1
*** at Tue Sep 14 17:41:38 2021

   => Loading Basis Set <=

    Name: AUG-CC-PVDZ
    Role: ORBITAL
    Keyword: BASIS
    atoms 1-2, 10-11 entry N          line   218 file /theoryfs2/ds/csargent/miniconda3/envs/cle/share/psi4/basis/aug-cc-pvdz.gbs 
    atoms 3-6, 12-15 entry H          line    40 file /theoryfs2/ds/csargent/miniconda3/envs/cle/share/psi4/basis/aug-cc-pvdz.gbs 
    atoms 7-9, 16-18 entry C          line   182 file /theoryfs2/ds/csargent/miniconda3/envs/cle/share/psi4/basis/aug-cc-pvdz.gbs 


         ---------------------------------------------------------
                                   SCF
               by Justin Turney, Rob Parrish, Andy Simmonett
                          and Daniel G. A. Smith
                              RHF Reference
                        6 Threads,   6675 MiB Core
         ---------------------------------------------------------

  ==> Geometry <==

    Molecular point group: c1
    Full point group: C1

    Geometry (in Bohr), charge = 0, multiplicity = 1:

       Center              X                  Y                   Z               Mass       
    ------------   -----------------  -----------------  -----------------  -----------------
      Gh(N)          -4.293096210000    -3.068374310000     5.305162310000    14.003074004430
      Gh(N)          -2.158473710000    -2.926272960000     1.720374480000    14.003074004430
      Gh(H)          -0.025455870000    -6.359035750000     2.220464520000     1.007825032230
      Gh(H)          -2.685669680000    -6.532602410000     6.614459540000     1.007825032230
      Gh(H)          -4.743884230000    -0.006090060000     2.756159680000     1.007825032230
      Gh(H)          -1.410455400000    -2.247231470000     0.000000000000     1.007825032230
      Gh(C)          -1.437379910000    -5.075048480000     2.940658910000    12.000000000000
      Gh(C)          -2.769007820000    -5.146099160000     5.135228800000    12.000000000000
      Gh(C)          -3.859550360000    -1.777281980000     3.210934110000    12.000000000000
         N           14.962390350000    14.121829910000    11.490742040000    14.003074004430
         N           12.827767850000    13.979728550000    15.075529880000    14.003074004430
         H           10.694750010000    17.412491340000    14.575439840000     1.007825032230
         H           13.354963820000    17.586058000000    10.181444820000     1.007825032230
         H           15.413178370000    11.059545650000    14.039744680000     1.007825032230
         H           12.079749550000    13.300687060000    16.795904350000     1.007825032230
         C           12.106674050000    16.128504080000    13.855245440000    12.000000000000
         C           13.438301960000    16.199554760000    11.660675550000    12.000000000000
         C           14.528844500000    12.830737570000    13.584970240000    12.000000000000

  Running in c1 symmetry.

  Rotational constants: A =      0.02144  B =      0.00152  C =      0.00145 [cm^-1]
  Rotational constants: A =    642.86876  B =     45.69996  C =     43.38335 [MHz]
  Nuclear repulsion =  164.086695786288203

  Charge       = 0
  Multiplicity = 1
  Electrons    = 36
  Nalpha       = 18
  Nbeta        = 18

  ==> Algorithm <==

  SCF Algorithm Type is DF.
  DIIS enabled.
  MOM disabled.
  Fractional occupation disabled.
  Guess Type is SAD.
  Energy threshold   = 1.00e-10
  Density threshold  = 1.00e-10
  Integral threshold = 1.00e-12

  ==> Primary Basis <==

  Basis Set: AUG-CC-PVDZ
    Blend: AUG-CC-PVDZ
    Number of shells: 130
    Number of basis functions: 302
    Number of Cartesian functions: 322
    Spherical Harmonics?: true
    Max angular momentum: 2

   => Loading Basis Set <=

    Name: (AUG-CC-PVDZ AUX)
    Role: JKFIT
    Keyword: DF_BASIS_SCF
    atoms 1-2, 10-11 entry N          line   212 file /theoryfs2/ds/csargent/miniconda3/envs/cle/share/psi4/basis/aug-cc-pvdz-jkfit.gbs 
    atoms 3-6, 12-15 entry H          line    70 file /theoryfs2/ds/csargent/miniconda3/envs/cle/share/psi4/basis/aug-cc-pvdz-jkfit.gbs 
    atoms 7-9, 16-18 entry C          line   154 file /theoryfs2/ds/csargent/miniconda3/envs/cle/share/psi4/basis/aug-cc-pvdz-jkfit.gbs 

  ==> Integral Setup <==

  ==> DiskDFJK: Density-Fitted J/K Matrices <==

    J tasked:                  Yes
    K tasked:                  Yes
    wK tasked:                  No
    OpenMP threads:              6
    Integrals threads:           6
    Memory [MiB]:             5006
    Algorithm:                Core
    Integral Cache:           LOAD
    Schwarz Cutoff:          1E-12
    Fitting Condition:       1E-10

   => Auxiliary Basis Set <=

  Basis Set: (AUG-CC-PVDZ AUX)
    Blend: AUG-CC-PVDZ-JKFIT
    Number of shells: 376
    Number of basis functions: 1116
    Number of Cartesian functions: 1290
    Spherical Harmonics?: true
    Max angular momentum: 3

  Minimum eigenvalue in the overlap matrix is 2.1833733382E-05.
  Reciprocal condition number of the overlap matrix is 1.8391680567E-06.
    Using symmetric orthogonalization.

  ==> Pre-Iterations <==

  SCF Guess: Superposition of Atomic Densities via on-the-fly atomic UHF (no occupation information).

   -------------------------
    Irrep   Nso     Nmo    
   -------------------------
     A        302     302 
   -------------------------
    Total     302     302
   -------------------------

  ==> Iterations <==

                           Total Energy        Delta E     RMS |[F,P]|

   @DF-RHF iter SAD:  -224.55857167736912   -2.24559e+02   0.00000e+00 
   @DF-RHF iter   1:  -224.69806465441562   -1.39493e-01   1.63067e-03 DIIS
   @DF-RHF iter   2:  -224.80532027218024   -1.07256e-01   9.27384e-04 DIIS
   @DF-RHF iter   3:  -224.84168817594346   -3.63679e-02   1.74019e-04 DIIS
   @DF-RHF iter   4:  -224.84337342804437   -1.68525e-03   7.98972e-05 DIIS
   @DF-RHF iter   5:  -224.84367500875896   -3.01581e-04   1.26452e-05 DIIS
   @DF-RHF iter   6:  -224.84369234579236   -1.73370e-05   5.61871e-06 DIIS
   @DF-RHF iter   7:  -224.84369543386191   -3.08807e-06   2.19503e-06 DIIS
   @DF-RHF iter   8:  -224.84369616578022   -7.31918e-07   7.77587e-07 DIIS
   @DF-RHF iter   9:  -224.84369627657418   -1.10794e-07   1.87961e-07 DIIS
   @DF-RHF iter  10:  -224.84369628211005   -5.53587e-09   7.33125e-08 DIIS
   @DF-RHF iter  11:  -224.84369628293595   -8.25906e-10   3.26918e-08 DIIS
   @DF-RHF iter  12:  -224.84369628308866   -1.52710e-10   9.70884e-09 DIIS
   @DF-RHF iter  13:  -224.84369628310176   -1.31024e-11   3.58840e-09 DIIS
   @DF-RHF iter  14:  -224.84369628310353   -1.76215e-12   1.58275e-09 DIIS
   @DF-RHF iter  15:  -224.84369628310350    2.84217e-14   5.27556e-10 DIIS
   @DF-RHF iter  16:  -224.84369628310364   -1.42109e-13   2.34517e-10 DIIS
   @DF-RHF iter  17:  -224.84369628310330    3.41061e-13   4.71138e-11 DIIS
  Energy and wave function converged.


  ==> Post-Iterations <==

    Orbital Energies [Eh]
    ---------------------

    Doubly Occupied:                                                      

       1A    -15.637071     2A    -15.551216     3A    -11.300916  
       4A    -11.263160     5A    -11.245653     6A     -1.352867  
       7A     -1.169098     8A     -1.012098     9A     -0.824390  
      10A     -0.803731    11A     -0.760666    12A     -0.610096  
      13A     -0.603958    14A     -0.601922    15A     -0.570942  
      16A     -0.435483    17A     -0.400464    18A     -0.320685  

    Virtual:                                                              

      19A      0.022732    20A      0.025390    21A      0.040242  
      22A      0.041582    23A      0.043781    24A      0.049997  
      25A      0.061864    26A      0.068081    27A      0.076680  
      28A      0.086256    29A      0.089099    30A      0.097738  
      31A      0.101397    32A      0.120829    33A      0.124834  
      34A      0.125061    35A      0.125578    36A      0.126880  
      37A      0.127498    38A      0.133436    39A      0.133764  
      40A      0.134321    41A      0.138318    42A      0.140942  
      43A      0.156501    44A      0.156775    45A      0.158703  
      46A      0.171989    47A      0.178189    48A      0.187224  
      49A      0.192546    50A      0.208097    51A      0.209512  
      52A      0.211558    53A      0.212483    54A      0.220247  
      55A      0.220322    56A      0.222643    57A      0.232359  
      58A      0.233288    59A      0.241410    60A      0.261605  
      61A      0.267803    62A      0.272381    63A      0.277912  
      64A      0.299402    65A      0.301747    66A      0.306579  
      67A      0.314442    68A      0.319397    69A      0.338197  
      70A      0.360324    71A      0.361491    72A      0.370746  
      73A      0.375680    74A      0.379801    75A      0.388293  
      76A      0.393598    77A      0.397097    78A      0.417032  
      79A      0.427523    80A      0.429000    81A      0.435452  
      82A      0.440446    83A      0.449321    84A      0.452059  
      85A      0.452462    86A      0.466350    87A      0.468392  
      88A      0.481176    89A      0.481229    90A      0.486283  
      91A      0.488151    92A      0.517472    93A      0.520819  
      94A      0.536165    95A      0.538581    96A      0.543285  
      97A      0.551710    98A      0.556091    99A      0.556386  
     100A      0.568280   101A      0.576474   102A      0.579711  
     103A      0.587740   104A      0.594250   105A      0.598940  
     106A      0.606555   107A      0.612258   108A      0.616081  
     109A      0.618571   110A      0.636538   111A      0.639948  
     112A      0.652504   113A      0.669282   114A      0.671337  
     115A      0.677861   116A      0.678185   117A      0.683869  
     118A      0.683921   119A      0.711278   120A      0.714698  
     121A      0.725758   122A      0.736250   123A      0.741238  
     124A      0.756394   125A      0.762698   126A      0.767400  
     127A      0.790929   128A      0.793605   129A      0.798465  
     130A      0.809747   131A      0.810694   132A      0.812702  
     133A      0.823446   134A      0.836695   135A      0.859774  
     136A      0.860399   137A      0.871425   138A      0.885765  
     139A      0.886715   140A      0.889823   141A      0.909921  
     142A      0.919825   143A      0.927057   144A      0.954351  
     145A      0.968928   146A      0.976964   147A      0.991986  
     148A      0.998360   149A      1.010706   150A      1.015620  
     151A      1.017404   152A      1.030676   153A      1.059171  
     154A      1.077353   155A      1.078874   156A      1.084552  
     157A      1.103853   158A      1.116251   159A      1.126983  
     160A      1.132791   161A      1.140497   162A      1.149565  
     163A      1.167170   164A      1.171064   165A      1.174277  
     166A      1.197773   167A      1.210829   168A      1.217445  
     169A      1.260721   170A      1.278173   171A      1.290847  
     172A      1.297139   173A      1.302539   174A      1.312779  
     175A      1.318336   176A      1.347748   177A      1.384403  
     178A      1.385029   179A      1.398145   180A      1.451143  
     181A      1.495161   182A      1.503288   183A      1.516073  
     184A      1.518410   185A      1.541592   186A      1.574127  
     187A      1.574285   188A      1.596381   189A      1.652159  
     190A      1.661174   191A      1.671505   192A      1.705286  
     193A      1.724477   194A      1.782643   195A      1.799068  
     196A      1.807063   197A      1.864951   198A      1.881478  
     199A      1.924391   200A      1.964987   201A      2.022006  
     202A      2.025429   203A      2.039879   204A      2.072981  
     205A      2.101307   206A      2.107054   207A      2.119697  
     208A      2.126759   209A      2.131609   210A      2.135965  
     211A      2.149736   212A      2.168670   213A      2.178815  
     214A      2.185296   215A      2.230062   216A      2.252965  
     217A      2.267082   218A      2.275963   219A      2.300924  
     220A      2.308933   221A      2.327430   222A      2.332072  
     223A      2.377146   224A      2.406183   225A      2.413704  
     226A      2.417758   227A      2.456078   228A      2.471176  
     229A      2.494292   230A      2.496919   231A      2.514026  
     232A      2.526229   233A      2.545345   234A      2.545744  
     235A      2.577203   236A      2.585743   237A      2.600191  
     238A      2.633765   239A      2.696673   240A      2.734093  
     241A      2.747025   242A      2.767089   243A      2.790758  
     244A      2.794149   245A      2.803444   246A      2.829161  
     247A      2.837641   248A      2.867213   249A      2.896136  
     250A      2.933664   251A      2.949863   252A      2.952738  
     253A      2.980862   254A      3.043944   255A      3.051201  
     256A      3.069910   257A      3.076624   258A      3.132382  
     259A      3.160084   260A      3.183320   261A      3.199163  
     262A      3.208795   263A      3.213750   264A      3.334816  
     265A      3.341295   266A      3.354572   267A      3.355211  
     268A      3.363334   269A      3.459161   270A      3.494802  
     271A      3.518552   272A      3.570182   273A      3.609247  
     274A      3.707742   275A      3.727184   276A      3.768294  
     277A      3.778874   278A      3.798754   279A      3.858406  
     280A      3.871173   281A      4.004314   282A      4.109022  
     283A      4.213277   284A      4.637187   285A      4.639245  
     286A      4.696380   287A      4.772298   288A      4.880592  
     289A      5.021877   290A      5.255076   291A      5.373630  
     292A      5.495219   293A      5.610840   294A      5.716833  
     295A      5.884398   296A      6.090294   297A      6.198622  
     298A     18.255906   299A     18.590630   300A     19.300867  
     301A     25.312261   302A     25.453882  

    Final Occupation by Irrep:
              A 
    DOCC [    18 ]

  @DF-RHF Final Energy:  -224.84369628310330

   => Energetics <=

    Nuclear Repulsion Energy =            164.0866957862882032
    One-Electron Energy =                -628.9319559101627419
    Two-Electron Energy =                 240.0015638407712402
    Total Energy =                       -224.8436962831032986

Computation Completed


Properties will be evaluated at   0.000000,   0.000000,   0.000000 [a0]

Properties computed using the SCF density matrix

  Nuclear Dipole Moment: [e a0]
     X:   486.5167      Y:   527.0225      Z:   476.1618

  Electronic Dipole Moment: [e a0]
     X:  -487.3205      Y:  -527.1857      Z:  -474.8294

  Dipole Moment: [e a0]
     X:    -0.8038      Y:    -0.1633      Z:     1.3324     Total:     1.5646

  Dipole Moment: [D]
     X:    -2.0431      Y:    -0.4150      Z:     3.3867     Total:     3.9769


*** tstop() called on ds1 at Tue Sep 14 17:41:42 2021
Module time:
	user time   =      17.33 seconds =       0.29 minutes
	system time =       0.33 seconds =       0.01 minutes
	total time  =          4 seconds =       0.07 minutes
Total time:
	user time   =      60.47 seconds =       1.01 minutes
	system time =       1.38 seconds =       0.02 minutes
	total time  =         13 seconds =       0.22 minutes
  Constructing Basis Sets for SAPT...

   => Loading Basis Set <=

    Name: (AUG-CC-PVDZ AUX)
    Role: RIFIT
    Keyword: DF_BASIS_SAPT
    atoms 1-2, 10-11 entry N          line   158 file /theoryfs2/ds/csargent/miniconda3/envs/cle/share/psi4/basis/aug-cc-pvdz-ri.gbs 
    atoms 3-6, 12-15 entry H          line    30 file /theoryfs2/ds/csargent/miniconda3/envs/cle/share/psi4/basis/aug-cc-pvdz-ri.gbs 
    atoms 7-9, 16-18 entry C          line   112 file /theoryfs2/ds/csargent/miniconda3/envs/cle/share/psi4/basis/aug-cc-pvdz-ri.gbs 


  //>>>>>>>>>>>>>>>>>>>>>>>>>>>>>>>>>>>//
  //               SAPT0               //
  //<<<<<<<<<<<<<<<<<<<<<<<<<<<<<<<<<<<//


*** tstart() called on ds1
*** at Tue Sep 14 17:41:42 2021

        SAPT0  
    Ed Hohenstein
     6 June 2009

      Orbital Information
  --------------------------
    NSO        =       302
    NMO        =       302
    NRI        =       904
    NOCC A     =        18
    NOCC B     =        18
    FOCC A     =         5
    FOCC B     =         5
    NVIR A     =       284
    NVIR B     =       284

    Elst10,r            =    -0.000136596521 [Eh]
    Exch10              =     0.000000000000 [Eh]
    Exch10 (S^2)        =     0.000000000000 [Eh]

    Iter     Energy [mEh]          dE [mEh]         Residual      Time [s]
       1      -0.00019986       0.000199862       0.164215901             0
       2      -0.00018326      -0.000016597       0.040112159             0
       3      -0.00020435       0.000021088       0.011964733             0
       4      -0.00020569       0.000001341       0.004389097             0
       5      -0.00020529      -0.000000400       0.001526638             0
       6      -0.00020511      -0.000000184       0.000326548             0
       7      -0.00020516       0.000000056       0.000141323             0
       8      -0.00020517       0.000000010       0.000054347             1
       9      -0.00020517      -0.000000008       0.000023049             1
      10      -0.00020517      -0.000000001       0.000006914             1
      11      -0.00020517       0.000000001       0.000002033             1
      12      -0.00020517       0.000000000       0.000000726             1

    CHF Iterations converged


    Iter     Energy [mEh]          dE [mEh]         Residual      Time [s]
       1      -0.00019986       0.000199862       0.164215902             0
       2      -0.00018326      -0.000016597       0.040112159             0
       3      -0.00020435       0.000021088       0.011964733             0
       4      -0.00020569       0.000001341       0.004389097             1
       5      -0.00020529      -0.000000400       0.001526638             1
       6      -0.00020511      -0.000000184       0.000326548             1
       7      -0.00020516       0.000000056       0.000141323             1
       8      -0.00020517       0.000000010       0.000054347             1
       9      -0.00020517      -0.000000008       0.000023049             1
      10      -0.00020517      -0.000000001       0.000006914             1
      11      -0.00020517       0.000000001       0.000002033             1
      12      -0.00020517       0.000000000       0.000000726             2

    CHF Iterations converged

    Ind20,r (A<-B)      =    -0.000000205167 [Eh]
    Ind20,r (B<-A)      =    -0.000000205167 [Eh]
    Ind20,r             =    -0.000000410333 [Eh]
    Exch-Ind20,r (A<-B) =     0.000000000000 [Eh]
    Exch-Ind20,r (B<-A) =     0.000000000000 [Eh]
    Exch-Ind20,r        =     0.000000000000 [Eh]
    Disp20              =    -0.000002994802 [Eh]
    Disp20 (SS)         =    -0.000001497401 [Eh]
    Disp20 (OS)         =    -0.000001497401 [Eh]
    Exch-Disp20         =     0.000000000000 [Eh]
    Exch-Disp20 (SS)    =     0.000000000000 [Eh]
    Exch-Disp20 (OS)    =     0.000000000000 [Eh]

    SAPT Results 
  --------------------------------------------------------------------------------------------------------
    Electrostatics                 -0.13659652 [mEh]      -0.08571561 [kcal/mol]      -0.35863412 [kJ/mol]
      Elst10,r                     -0.13659652 [mEh]      -0.08571561 [kcal/mol]      -0.35863412 [kJ/mol]

    Exchange                        0.00000000 [mEh]       0.00000000 [kcal/mol]       0.00000000 [kJ/mol]
      Exch10                        0.00000000 [mEh]       0.00000000 [kcal/mol]       0.00000000 [kJ/mol]
      Exch10(S^2)                   0.00000000 [mEh]       0.00000000 [kcal/mol]       0.00000000 [kJ/mol]

    Induction                      -0.00042957 [mEh]      -0.00026956 [kcal/mol]      -0.00112784 [kJ/mol]
      Ind20,r                      -0.00041033 [mEh]      -0.00025749 [kcal/mol]      -0.00107733 [kJ/mol]
      Exch-Ind20,r                  0.00000000 [mEh]       0.00000000 [kcal/mol]       0.00000000 [kJ/mol]
      delta HF,r (2)               -0.00001924 [mEh]      -0.00001207 [kcal/mol]      -0.00005051 [kJ/mol]

    Dispersion                     -0.00299480 [mEh]      -0.00187927 [kcal/mol]      -0.00786285 [kJ/mol]
      Disp20                       -0.00299480 [mEh]      -0.00187927 [kcal/mol]      -0.00786285 [kJ/mol]
      Exch-Disp20                   0.00000000 [mEh]       0.00000000 [kcal/mol]       0.00000000 [kJ/mol]
      Disp20 (SS)                  -0.00149740 [mEh]      -0.00093963 [kcal/mol]      -0.00393143 [kJ/mol]
      Disp20 (OS)                  -0.00149740 [mEh]      -0.00093963 [kcal/mol]      -0.00393143 [kJ/mol]
      Exch-Disp20 (SS)              0.00000000 [mEh]       0.00000000 [kcal/mol]       0.00000000 [kJ/mol]
      Exch-Disp20 (OS)              0.00000000 [mEh]       0.00000000 [kcal/mol]       0.00000000 [kJ/mol]

  Total HF                         -0.13702609 [mEh]      -0.08598517 [kcal/mol]      -0.35976196 [kJ/mol]
  Total SAPT0                      -0.14002089 [mEh]      -0.08786444 [kcal/mol]      -0.36762481 [kJ/mol]

  Special recipe for scaled SAPT0 (see Manual):
    Electrostatics sSAPT0          -0.13659652 [mEh]      -0.08571561 [kcal/mol]      -0.35863412 [kJ/mol]
    Exchange sSAPT0                 0.00000000 [mEh]       0.00000000 [kcal/mol]       0.00000000 [kJ/mol]
    Induction sSAPT0               -0.00042957 [mEh]      -0.00026956 [kcal/mol]      -0.00112784 [kJ/mol]
    Dispersion sSAPT0              -0.00299480 [mEh]      -0.00187927 [kcal/mol]      -0.00786285 [kJ/mol]
  Total sSAPT0                     -0.14002089 [mEh]      -0.08786444 [kcal/mol]      -0.36762481 [kJ/mol]
  --------------------------------------------------------------------------------------------------------

*** tstop() called on ds1 at Tue Sep 14 17:41:52 2021
Module time:
	user time   =      46.27 seconds =       0.77 minutes
	system time =       3.88 seconds =       0.06 minutes
	total time  =         10 seconds =       0.17 minutes
Total time:
	user time   =     107.77 seconds =       1.80 minutes
	system time =       5.30 seconds =       0.09 minutes
	total time  =         23 seconds =       0.38 minutes


Warning! sapt0 does not have an associated derived wavefunction.The returned wavefunction is the dimer SCF wavefunction.


    Psi4 stopped on: Tuesday, 14 September 2021 05:41PM
    Psi4 wall time for execution: 0:00:23.01

*** Psi4 exiting successfully. Buy a developer a beer!
