
    -----------------------------------------------------------------------
          Psi4: An Open-Source Ab Initio Electronic Structure Package
                               Psi4 1.4rc3 

                         Git: Rev {HEAD} 080dba6 


    D. G. A. Smith, L. A. Burns, A. C. Simmonett, R. M. Parrish,
    M. C. Schieber, R. Galvelis, P. Kraus, H. Kruse, R. Di Remigio,
    A. Alenaizan, A. M. James, S. Lehtola, J. P. Misiewicz, M. Scheurer,
    R. A. Shaw, J. B. Schriber, Y. Xie, Z. L. Glick, D. A. Sirianni,
    J. S. O'Brien, J. M. Waldrop, A. Kumar, E. G. Hohenstein,
    B. P. Pritchard, B. R. Brooks, H. F. Schaefer III, A. Yu. Sokolov,
    K. Patkowski, A. E. DePrince III, U. Bozkaya, R. A. King,
    F. A. Evangelista, J. M. Turney, T. D. Crawford, C. D. Sherrill,
    J. Chem. Phys. 152(18) 184108 (2020). https://doi.org/10.1063/5.0006002

                            Additional Code Authors
    E. T. Seidl, C. L. Janssen, E. F. Valeev, M. L. Leininger,
    J. F. Gonthier, R. M. Richard, H. R. McAlexander, M. Saitow, X. Wang,
    P. Verma, and M. H. Lechner

             Previous Authors, Complete List of Code Contributors,
                       and Citations for Specific Modules
    https://github.com/psi4/psi4/blob/master/codemeta.json
    https://github.com/psi4/psi4/graphs/contributors
    http://psicode.org/psi4manual/master/introduction.html#citing-psifour

    -----------------------------------------------------------------------


    Psi4 started on: Tuesday, 14 September 2021 05:33PM

    Process ID: 3468
    Host:       ds1
    PSIDATADIR: /theoryfs2/ds/csargent/miniconda3/envs/cle/share/psi4
    Memory:     500.0 MiB
    Threads:    6
    
  ==> Input File <==

--------------------------------------------------------------------------
# PSI4 file produced by CrystaLattE

# Generated from:               imidazole.xyz
# Psithon input for N-mer:      2mer-0+28
# Number of atoms per monomer:  [9, 9]
# Number of replicas:           2
# COM priority:                 1.847092969103e-04
# Minimum COM separations:      9.292 
# Separation priority:          2.588983367169e-04
# Minimum monomer separations:  8.303 
# Cutoff priority:              1.650082583781e-05
# Nuclear repulsion energy:     400.9986356019955

memory 7 GB

molecule Dimer_0_28 {
  N           -4.29309621      -3.06837431       5.30516231 
  N           -2.15847371      -2.92627296       1.72037448 
  H           -0.02545587      -6.35903575       2.22046452 
  H           -2.68566968      -6.53260241       6.61445954 
  H           -4.74388423      -0.00609006       2.75615968 
  H           -1.41045540      -2.24723147       0.00000000 
  C           -1.43737991      -5.07504848       2.94065891 
  C           -2.76900782      -5.14609916       5.13522880 
  C           -3.85955036      -1.77728198       3.21093411 
--
  N           10.03518522       7.08172265       5.30516231 
  N           12.16980772       7.22382401       1.72037448 
  H           14.30282556       3.79106122       2.22046452 
  H           11.64261175       3.61749456       6.61445954 
  H            9.58439720      10.14400691       2.75615968 
  H           12.91782602       7.90286550       0.00000000 
  C           12.89090152       5.07504848       2.94065891 
  C           11.55927361       5.00399780       5.13522880 
  C           10.46873107       8.37281499       3.21093411 
units = au
no_com
no_reorient
}

set {
  e_convergence 10
  d_convergence 10
  scf_type df
  mp2_type df
  cc_type df
  freeze_core true
}

energy('sapt0/aug-cc-pvdz')

--------------------------------------------------------------------------

  Memory set to   6.519 GiB by Python driver.

Scratch directory: /scratch/csargent/psi4.31446.79897/

Scratch directory: /scratch/csargent/psi4.31446.79897/

  //>>>>>>>>>>>>>>>>>>>>>>>>>>>>>>>>>>>//
  //              Dimer HF             //
  //<<<<<<<<<<<<<<<<<<<<<<<<<<<<<<<<<<<//


*** tstart() called on ds1
*** at Tue Sep 14 17:33:32 2021

   => Loading Basis Set <=

    Name: AUG-CC-PVDZ
    Role: ORBITAL
    Keyword: BASIS
    atoms 1-2, 10-11 entry N          line   218 file /theoryfs2/ds/csargent/miniconda3/envs/cle/share/psi4/basis/aug-cc-pvdz.gbs 
    atoms 3-6, 12-15 entry H          line    40 file /theoryfs2/ds/csargent/miniconda3/envs/cle/share/psi4/basis/aug-cc-pvdz.gbs 
    atoms 7-9, 16-18 entry C          line   182 file /theoryfs2/ds/csargent/miniconda3/envs/cle/share/psi4/basis/aug-cc-pvdz.gbs 


         ---------------------------------------------------------
                                   SCF
               by Justin Turney, Rob Parrish, Andy Simmonett
                          and Daniel G. A. Smith
                              RHF Reference
                        6 Threads,   6675 MiB Core
         ---------------------------------------------------------

  ==> Geometry <==

    Molecular point group: c1
    Full point group: C1

    Geometry (in Bohr), charge = 0, multiplicity = 1:

       Center              X                  Y                   Z               Mass       
    ------------   -----------------  -----------------  -----------------  -----------------
         N           -4.293096210000    -3.068374310000     5.305162310000    14.003074004430
         N           -2.158473710000    -2.926272960000     1.720374480000    14.003074004430
         H           -0.025455870000    -6.359035750000     2.220464520000     1.007825032230
         H           -2.685669680000    -6.532602410000     6.614459540000     1.007825032230
         H           -4.743884230000    -0.006090060000     2.756159680000     1.007825032230
         H           -1.410455400000    -2.247231470000     0.000000000000     1.007825032230
         C           -1.437379910000    -5.075048480000     2.940658910000    12.000000000000
         C           -2.769007820000    -5.146099160000     5.135228800000    12.000000000000
         C           -3.859550360000    -1.777281980000     3.210934110000    12.000000000000
         N           10.035185220000     7.081722650000     5.305162310000    14.003074004430
         N           12.169807720000     7.223824010000     1.720374480000    14.003074004430
         H           14.302825560000     3.791061220000     2.220464520000     1.007825032230
         H           11.642611750000     3.617494560000     6.614459540000     1.007825032230
         H            9.584397200000    10.144006910000     2.756159680000     1.007825032230
         H           12.917826020000     7.902865500000     0.000000000000     1.007825032230
         C           12.890901520000     5.075048480000     2.940658910000    12.000000000000
         C           11.559273610000     5.003997800000     5.135228800000    12.000000000000
         C           10.468731070000     8.372814990000     3.210934110000    12.000000000000

  Running in c1 symmetry.

  Rotational constants: A =      0.02676  B =      0.00433  C =      0.00390 [cm^-1]
  Rotational constants: A =    802.11264  B =    129.69130  C =    116.82392 [MHz]
  Nuclear repulsion =  400.998635622683992

  Charge       = 0
  Multiplicity = 1
  Electrons    = 72
  Nalpha       = 36
  Nbeta        = 36

  ==> Algorithm <==

  SCF Algorithm Type is DF.
  DIIS enabled.
  MOM disabled.
  Fractional occupation disabled.
  Guess Type is SAD.
  Energy threshold   = 1.00e-10
  Density threshold  = 1.00e-10
  Integral threshold = 1.00e-12

  ==> Primary Basis <==

  Basis Set: AUG-CC-PVDZ
    Blend: AUG-CC-PVDZ
    Number of shells: 130
    Number of basis functions: 302
    Number of Cartesian functions: 322
    Spherical Harmonics?: true
    Max angular momentum: 2

   => Loading Basis Set <=

    Name: (AUG-CC-PVDZ AUX)
    Role: JKFIT
    Keyword: DF_BASIS_SCF
    atoms 1-2, 10-11 entry N          line   212 file /theoryfs2/ds/csargent/miniconda3/envs/cle/share/psi4/basis/aug-cc-pvdz-jkfit.gbs 
    atoms 3-6, 12-15 entry H          line    70 file /theoryfs2/ds/csargent/miniconda3/envs/cle/share/psi4/basis/aug-cc-pvdz-jkfit.gbs 
    atoms 7-9, 16-18 entry C          line   154 file /theoryfs2/ds/csargent/miniconda3/envs/cle/share/psi4/basis/aug-cc-pvdz-jkfit.gbs 

  ==> Integral Setup <==

  ==> DiskDFJK: Density-Fitted J/K Matrices <==

    J tasked:                  Yes
    K tasked:                  Yes
    wK tasked:                  No
    OpenMP threads:              6
    Integrals threads:           6
    Memory [MiB]:             5006
    Algorithm:                Core
    Integral Cache:           SAVE
    Schwarz Cutoff:          1E-12
    Fitting Condition:       1E-10

   => Auxiliary Basis Set <=

  Basis Set: (AUG-CC-PVDZ AUX)
    Blend: AUG-CC-PVDZ-JKFIT
    Number of shells: 376
    Number of basis functions: 1116
    Number of Cartesian functions: 1290
    Spherical Harmonics?: true
    Max angular momentum: 3

  Minimum eigenvalue in the overlap matrix is 2.1378859861E-05.
  Reciprocal condition number of the overlap matrix is 1.7991297908E-06.
    Using symmetric orthogonalization.

  ==> Pre-Iterations <==

  SCF Guess: Superposition of Atomic Densities via on-the-fly atomic UHF (no occupation information).

   -------------------------
    Irrep   Nso     Nmo    
   -------------------------
     A        302     302 
   -------------------------
    Total     302     302
   -------------------------

  ==> Iterations <==

                           Total Energy        Delta E     RMS |[F,P]|

   @DF-RHF iter SAD:  -449.11714530322945   -4.49117e+02   0.00000e+00 
   @DF-RHF iter   1:  -449.39561690063579   -2.78472e-01   2.30740e-03 DIIS
   @DF-RHF iter   2:  -449.61014878761029   -2.14532e-01   1.31411e-03 DIIS
   @DF-RHF iter   3:  -449.68319080020211   -7.30420e-02   2.46907e-04 DIIS
   @DF-RHF iter   4:  -449.68657538571358   -3.38459e-03   1.13484e-04 DIIS
   @DF-RHF iter   5:  -449.68718388797060   -6.08502e-04   1.79001e-05 DIIS
   @DF-RHF iter   6:  -449.68721863543760   -3.47475e-05   7.96276e-06 DIIS
   @DF-RHF iter   7:  -449.68722482365570   -6.18822e-06   3.10875e-06 DIIS
   @DF-RHF iter   8:  -449.68722628866868   -1.46501e-06   1.10026e-06 DIIS
   @DF-RHF iter   9:  -449.68722651007289   -2.21404e-07   2.68493e-07 DIIS
   @DF-RHF iter  10:  -449.68722652116139   -1.10885e-08   1.06637e-07 DIIS
   @DF-RHF iter  11:  -449.68722652289421   -1.73281e-09   4.60550e-08 DIIS
   @DF-RHF iter  12:  -449.68722652320270   -3.08489e-10   1.39006e-08 DIIS
   @DF-RHF iter  13:  -449.68722652322947   -2.67733e-11   5.11817e-09 DIIS
   @DF-RHF iter  14:  -449.68722652323254   -3.06954e-12   2.24308e-09 DIIS
   @DF-RHF iter  15:  -449.68722652323299   -4.54747e-13   7.69885e-10 DIIS
   @DF-RHF iter  16:  -449.68722652323299    0.00000e+00   3.59588e-10 DIIS
   @DF-RHF iter  17:  -449.68722652323356   -5.68434e-13   1.11287e-10 DIIS
   @DF-RHF iter  18:  -449.68722652323316    3.97904e-13   4.06644e-11 DIIS
  Energy and wave function converged.


  ==> Post-Iterations <==

    Orbital Energies [Eh]
    ---------------------

    Doubly Occupied:                                                      

       1A    -15.638829     2A    -15.634386     3A    -15.552783  
       4A    -15.548470     5A    -11.302561     6A    -11.298214  
       7A    -11.264824     8A    -11.260551     9A    -11.247249  
      10A    -11.243041    11A     -1.354572    12A     -1.350160  
      13A     -1.170751    14A     -1.166391    15A     -1.013770  
      16A     -1.009434    17A     -0.826074    18A     -0.821719  
      19A     -0.805363    20A     -0.801083    21A     -0.762358  
      22A     -0.758012    23A     -0.611736    24A     -0.607444  
      25A     -0.605695    26A     -0.603631    27A     -0.601229  
      28A     -0.599331    29A     -0.572476    30A     -0.568289  
      31A     -0.436963    32A     -0.432757    33A     -0.402085  
      34A     -0.397741    35A     -0.322389    36A     -0.317997  

    Virtual:                                                              

      37A      0.021732    38A      0.028229    39A      0.038135  
      40A      0.044961    41A      0.048573    42A      0.052830  
      43A      0.061296    44A      0.063820    45A      0.083685  
      46A      0.093782    47A      0.102004    48A      0.103533  
      49A      0.116935    50A      0.117762    51A      0.126349  
      52A      0.129491    53A      0.130973    54A      0.134947  
      55A      0.136537    56A      0.136790    57A      0.141587  
      58A      0.145639    59A      0.155413    60A      0.156794  
      61A      0.164448    62A      0.166067    63A      0.172841  
      64A      0.176098    65A      0.176944    66A      0.181181  
      67A      0.189485    68A      0.191425    69A      0.210641  
      70A      0.214327    71A      0.218407    72A      0.224934  
      73A      0.229371    74A      0.237382    75A      0.240118  
      76A      0.246411    77A      0.259933    78A      0.264083  
      79A      0.267151    80A      0.271008    81A      0.279415  
      82A      0.282808    83A      0.301269    84A      0.311239  
      85A      0.314042    86A      0.317373    87A      0.339947  
      88A      0.341328    89A      0.359907    90A      0.364024  
      91A      0.369192    92A      0.374559    93A      0.378326  
      94A      0.384324    95A      0.386903    96A      0.391497  
      97A      0.396430    98A      0.401680    99A      0.417023  
     100A      0.420993   101A      0.427778   102A      0.432015  
     103A      0.450002   104A      0.457943   105A      0.468569  
     106A      0.469522   107A      0.479500   108A      0.483220  
     109A      0.486112   110A      0.487105   111A      0.489874  
     112A      0.494175   113A      0.550395   114A      0.554578  
     115A      0.555990   116A      0.560789   117A      0.566722  
     118A      0.572013   119A      0.575435   120A      0.579550  
     121A      0.593086   122A      0.596211   123A      0.598423  
     124A      0.603059   125A      0.615097   126A      0.619611  
     127A      0.635701   128A      0.639405   129A      0.651408  
     130A      0.656115   131A      0.667762   132A      0.669676  
     133A      0.672005   134A      0.675780   135A      0.676906  
     136A      0.681333   137A      0.683007   138A      0.689051  
     139A      0.713409   140A      0.717979   141A      0.724533  
     142A      0.729821   143A      0.740136   144A      0.744744  
     145A      0.761243   146A      0.765768   147A      0.766624  
     148A      0.770131   149A      0.789885   150A      0.791659  
     151A      0.794057   152A      0.798078   153A      0.808643  
     154A      0.813690   155A      0.859639   156A      0.863728  
     157A      0.871675   158A      0.874645   159A      0.884571  
     160A      0.888136   161A      0.889737   162A      0.893689  
     163A      0.952760   164A      0.957447   165A      0.975481  
     166A      0.979996   167A      0.997422   168A      1.001375  
     169A      1.011374   170A      1.013598   171A      1.015799  
     172A      1.020240   173A      1.029282   174A      1.033901  
     175A      1.075780   176A      1.080236   177A      1.083519  
     178A      1.087354   179A      1.125988   180A      1.129752  
     181A      1.140297   182A      1.143157   183A      1.148301  
     184A      1.152487   185A      1.166129   186A      1.169977  
     187A      1.216004   188A      1.220596   189A      1.259211  
     190A      1.263489   191A      1.301335   192A      1.305467  
     193A      1.383487   194A      1.388110   195A      1.396693  
     196A      1.401206   197A      1.449712   198A      1.454564  
     199A      1.501889   200A      1.506698   201A      1.516677  
     202A      1.521396   203A      1.572499   204A      1.573383  
     205A      1.576895   206A      1.577768   207A      1.594969  
     208A      1.599344   209A      1.650935   210A      1.655538  
     211A      1.670211   212A      1.674612   213A      1.704265  
     214A      1.708272   215A      1.722995   216A      1.727956  
     217A      1.781584   218A      1.785859   219A      1.798388  
     220A      1.802609   221A      1.805682   222A      1.810051  
     223A      1.864579   224A      1.869718   225A      1.880120  
     226A      1.884559   227A      1.922754   228A      1.927272  
     229A      1.963548   230A      1.968041   231A      2.020364  
     232A      2.023490   233A      2.025969   234A      2.028660  
     235A      2.071521   236A      2.075967   237A      2.105467  
     238A      2.110152   239A      2.125230   240A      2.129504  
     241A      2.134451   242A      2.138667   243A      2.167215  
     244A      2.172118   245A      2.178307   246A      2.182842  
     247A      2.265548   248A      2.269811   249A      2.274651  
     250A      2.279148   251A      2.299657   252A      2.304031  
     253A      2.330878   254A      2.335669   255A      2.416545  
     256A      2.420471   257A      2.495273   258A      2.499834  
     259A      2.513080   260A      2.518453   261A      2.543813  
     262A      2.548824   263A      2.585069   264A      2.588516  
     265A      2.632444   266A      2.636621   267A      2.732857  
     268A      2.737201   269A      2.745574   270A      2.750106  
     271A      2.765664   272A      2.769825   273A      2.792535  
     274A      2.796908   275A      2.801966   276A      2.806501  
     277A      2.836021   278A      2.840960   279A      2.865698  
     280A      2.869941   281A      2.951106   282A      2.955892  
     283A      2.979516   284A      2.983803   285A      3.049592  
     286A      3.053852   287A      3.068404   288A      3.072651  
     289A      3.197768   290A      3.202526   291A      3.207213  
     292A      3.211540   293A      3.333197   294A      3.337532  
     295A      3.353156   296A      3.357375   297A      3.516972  
     298A      3.521314   299A      3.767394   300A      3.771185  
     301A      4.107882   302A      4.112623  

    Final Occupation by Irrep:
              A 
    DOCC [    36 ]

  @DF-RHF Final Energy:  -449.68722652323316

   => Energetics <=

    Nuclear Repulsion Energy =            400.9986356226839916
    One-Electron Energy =               -1403.5510057622168461
    Two-Electron Energy =                 552.8651436162997470
    Total Energy =                       -449.6872265232331074

Computation Completed


Properties will be evaluated at   0.000000,   0.000000,   0.000000 [a0]

Properties computed using the SCF density matrix

  Nuclear Dipole Moment: [e a0]
     X:   310.9740      Y:   107.2074      Z:   256.9815

  Electronic Dipole Moment: [e a0]
     X:  -309.3594      Y:  -106.8682      Z:  -259.6272

  Dipole Moment: [e a0]
     X:     1.6146      Y:     0.3391      Z:    -2.6457     Total:     3.1179

  Dipole Moment: [D]
     X:     4.1038      Y:     0.8620      Z:    -6.7246     Total:     7.9250


*** tstop() called on ds1 at Tue Sep 14 17:33:38 2021
Module time:
	user time   =      28.90 seconds =       0.48 minutes
	system time =       0.62 seconds =       0.01 minutes
	total time  =          6 seconds =       0.10 minutes
Total time:
	user time   =      28.90 seconds =       0.48 minutes
	system time =       0.62 seconds =       0.01 minutes
	total time  =          6 seconds =       0.10 minutes

  //>>>>>>>>>>>>>>>>>>>>>>>>>>>>>>>>>>>//
  //            Monomer A HF           //
  //<<<<<<<<<<<<<<<<<<<<<<<<<<<<<<<<<<<//


*** tstart() called on ds1
*** at Tue Sep 14 17:33:38 2021

   => Loading Basis Set <=

    Name: AUG-CC-PVDZ
    Role: ORBITAL
    Keyword: BASIS
    atoms 1-2, 10-11 entry N          line   218 file /theoryfs2/ds/csargent/miniconda3/envs/cle/share/psi4/basis/aug-cc-pvdz.gbs 
    atoms 3-6, 12-15 entry H          line    40 file /theoryfs2/ds/csargent/miniconda3/envs/cle/share/psi4/basis/aug-cc-pvdz.gbs 
    atoms 7-9, 16-18 entry C          line   182 file /theoryfs2/ds/csargent/miniconda3/envs/cle/share/psi4/basis/aug-cc-pvdz.gbs 


         ---------------------------------------------------------
                                   SCF
               by Justin Turney, Rob Parrish, Andy Simmonett
                          and Daniel G. A. Smith
                              RHF Reference
                        6 Threads,   6675 MiB Core
         ---------------------------------------------------------

  ==> Geometry <==

    Molecular point group: c1
    Full point group: C1

    Geometry (in Bohr), charge = 0, multiplicity = 1:

       Center              X                  Y                   Z               Mass       
    ------------   -----------------  -----------------  -----------------  -----------------
         N           -4.293096210000    -3.068374310000     5.305162310000    14.003074004430
         N           -2.158473710000    -2.926272960000     1.720374480000    14.003074004430
         H           -0.025455870000    -6.359035750000     2.220464520000     1.007825032230
         H           -2.685669680000    -6.532602410000     6.614459540000     1.007825032230
         H           -4.743884230000    -0.006090060000     2.756159680000     1.007825032230
         H           -1.410455400000    -2.247231470000     0.000000000000     1.007825032230
         C           -1.437379910000    -5.075048480000     2.940658910000    12.000000000000
         C           -2.769007820000    -5.146099160000     5.135228800000    12.000000000000
         C           -3.859550360000    -1.777281980000     3.210934110000    12.000000000000
      Gh(N)          10.035185220000     7.081722650000     5.305162310000    14.003074004430
      Gh(N)          12.169807720000     7.223824010000     1.720374480000    14.003074004430
      Gh(H)          14.302825560000     3.791061220000     2.220464520000     1.007825032230
      Gh(H)          11.642611750000     3.617494560000     6.614459540000     1.007825032230
      Gh(H)           9.584397200000    10.144006910000     2.756159680000     1.007825032230
      Gh(H)          12.917826020000     7.902865500000     0.000000000000     1.007825032230
      Gh(C)          12.890901520000     5.075048480000     2.940658910000    12.000000000000
      Gh(C)          11.559273610000     5.003997800000     5.135228800000    12.000000000000
      Gh(C)          10.468731070000     8.372814990000     3.210934110000    12.000000000000

  Running in c1 symmetry.

  Rotational constants: A =      0.02676  B =      0.00433  C =      0.00390 [cm^-1]
  Rotational constants: A =    802.11264  B =    129.69130  C =    116.82392 [MHz]
  Nuclear repulsion =  164.086695994184396

  Charge       = 0
  Multiplicity = 1
  Electrons    = 36
  Nalpha       = 18
  Nbeta        = 18

  ==> Algorithm <==

  SCF Algorithm Type is DF.
  DIIS enabled.
  MOM disabled.
  Fractional occupation disabled.
  Guess Type is SAD.
  Energy threshold   = 1.00e-10
  Density threshold  = 1.00e-10
  Integral threshold = 1.00e-12

  ==> Primary Basis <==

  Basis Set: AUG-CC-PVDZ
    Blend: AUG-CC-PVDZ
    Number of shells: 130
    Number of basis functions: 302
    Number of Cartesian functions: 322
    Spherical Harmonics?: true
    Max angular momentum: 2

   => Loading Basis Set <=

    Name: (AUG-CC-PVDZ AUX)
    Role: JKFIT
    Keyword: DF_BASIS_SCF
    atoms 1-2, 10-11 entry N          line   212 file /theoryfs2/ds/csargent/miniconda3/envs/cle/share/psi4/basis/aug-cc-pvdz-jkfit.gbs 
    atoms 3-6, 12-15 entry H          line    70 file /theoryfs2/ds/csargent/miniconda3/envs/cle/share/psi4/basis/aug-cc-pvdz-jkfit.gbs 
    atoms 7-9, 16-18 entry C          line   154 file /theoryfs2/ds/csargent/miniconda3/envs/cle/share/psi4/basis/aug-cc-pvdz-jkfit.gbs 

  ==> Integral Setup <==

  ==> DiskDFJK: Density-Fitted J/K Matrices <==

    J tasked:                  Yes
    K tasked:                  Yes
    wK tasked:                  No
    OpenMP threads:              6
    Integrals threads:           6
    Memory [MiB]:             5006
    Algorithm:                Core
    Integral Cache:           LOAD
    Schwarz Cutoff:          1E-12
    Fitting Condition:       1E-10

   => Auxiliary Basis Set <=

  Basis Set: (AUG-CC-PVDZ AUX)
    Blend: AUG-CC-PVDZ-JKFIT
    Number of shells: 376
    Number of basis functions: 1116
    Number of Cartesian functions: 1290
    Spherical Harmonics?: true
    Max angular momentum: 3

  Minimum eigenvalue in the overlap matrix is 2.1378859861E-05.
  Reciprocal condition number of the overlap matrix is 1.7991297908E-06.
    Using symmetric orthogonalization.

  ==> Pre-Iterations <==

  SCF Guess: Superposition of Atomic Densities via on-the-fly atomic UHF (no occupation information).

   -------------------------
    Irrep   Nso     Nmo    
   -------------------------
     A        302     302 
   -------------------------
    Total     302     302
   -------------------------

  ==> Iterations <==

                           Total Energy        Delta E     RMS |[F,P]|

   @DF-RHF iter SAD:  -224.55857175824869   -2.24559e+02   0.00000e+00 
   @DF-RHF iter   1:  -224.69806703056742   -1.39495e-01   1.63068e-03 DIIS
   @DF-RHF iter   2:  -224.80532336409351   -1.07256e-01   9.27389e-04 DIIS
   @DF-RHF iter   3:  -224.84169153061083   -3.63682e-02   1.74021e-04 DIIS
   @DF-RHF iter   4:  -224.84337681655816   -1.68529e-03   7.98982e-05 DIIS
   @DF-RHF iter   5:  -224.84367840572654   -3.01589e-04   1.26452e-05 DIIS
   @DF-RHF iter   6:  -224.84369574333414   -1.73376e-05   5.61875e-06 DIIS
   @DF-RHF iter   7:  -224.84369883144012   -3.08811e-06   2.19495e-06 DIIS
   @DF-RHF iter   8:  -224.84369956335306   -7.31913e-07   7.77589e-07 DIIS
   @DF-RHF iter   9:  -224.84369967414099   -1.10788e-07   1.87945e-07 DIIS
   @DF-RHF iter  10:  -224.84369967967606   -5.53507e-09   7.33033e-08 DIIS
   @DF-RHF iter  11:  -224.84369968050197   -8.25906e-10   3.26882e-08 DIIS
   @DF-RHF iter  12:  -224.84369968065351   -1.51545e-10   9.70712e-09 DIIS
   @DF-RHF iter  13:  -224.84369968066744   -1.39266e-11   3.58780e-09 DIIS
   @DF-RHF iter  14:  -224.84369968066900   -1.56319e-12   1.58251e-09 DIIS
   @DF-RHF iter  15:  -224.84369968066900    0.00000e+00   5.27550e-10 DIIS
   @DF-RHF iter  16:  -224.84369968066918   -1.70530e-13   2.34522e-10 DIIS
   @DF-RHF iter  17:  -224.84369968066909    8.52651e-14   4.71140e-11 DIIS
  Energy and wave function converged.


  ==> Post-Iterations <==

    Orbital Energies [Eh]
    ---------------------

    Doubly Occupied:                                                      

       1A    -15.637072     2A    -15.551216     3A    -11.300917  
       4A    -11.263160     5A    -11.245653     6A     -1.352867  
       7A     -1.169099     8A     -1.012098     9A     -0.824390  
      10A     -0.803731    11A     -0.760667    12A     -0.610096  
      13A     -0.603958    14A     -0.601923    15A     -0.570943  
      16A     -0.435483    17A     -0.400465    18A     -0.320685  

    Virtual:                                                              

      19A      0.018025    20A      0.028014    21A      0.036241  
      22A      0.041394    23A      0.044175    24A      0.050830  
      25A      0.061593    26A      0.066719    27A      0.072721  
      28A      0.084703    29A      0.089600    30A      0.098316  
      31A      0.101092    32A      0.114552    33A      0.119578  
      34A      0.123782    35A      0.124549    36A      0.128256  
      37A      0.128299    38A      0.132845    39A      0.134506  
      40A      0.137825    41A      0.140588    42A      0.144197  
      43A      0.157319    44A      0.160784    45A      0.164224  
      46A      0.172246    47A      0.179297    48A      0.187677  
      49A      0.191302    50A      0.207333    51A      0.208511  
      52A      0.211111    53A      0.214212    54A      0.217603  
      55A      0.222339    56A      0.225422    57A      0.230659  
      58A      0.235934    59A      0.243825    60A      0.261810  
      61A      0.268337    62A      0.270453    63A      0.280282  
      64A      0.298410    65A      0.302763    66A      0.309374  
      67A      0.314637    68A      0.317934    69A      0.338583  
      70A      0.360854    71A      0.362117    72A      0.372547  
      73A      0.375402    74A      0.380175    75A      0.388353  
      76A      0.393627    77A      0.400667    78A      0.418054  
      79A      0.426941    80A      0.429024    81A      0.435416  
      82A      0.442770    83A      0.447923    84A      0.451038  
      85A      0.454505    86A      0.465939    87A      0.468427  
      88A      0.480141    89A      0.481686    90A      0.487309  
      91A      0.490383    92A      0.516738    93A      0.520565  
      94A      0.535007    95A      0.537590    96A      0.541946  
      97A      0.551333    98A      0.555128    99A      0.558789  
     100A      0.569870   101A      0.576839   102A      0.578096  
     103A      0.586205   104A      0.594847   105A      0.599334  
     106A      0.605822   107A      0.611583   108A      0.617143  
     109A      0.618056   110A      0.636883   111A      0.638272  
     112A      0.653363   113A      0.669604   114A      0.672598  
     115A      0.676246   116A      0.678557   117A      0.682195  
     118A      0.686481   119A      0.710610   120A      0.714983  
     121A      0.726938   122A      0.734551   123A      0.742743  
     124A      0.754772   125A      0.762992   126A      0.767460  
     127A      0.791393   128A      0.793668   129A      0.799532  
     130A      0.809126   131A      0.810103   132A      0.812813  
     133A      0.823434   134A      0.836654   135A      0.858632  
     136A      0.862637   137A      0.872191   138A      0.885134  
     139A      0.886113   140A      0.891149   141A      0.908370  
     142A      0.918650   143A      0.925548   144A      0.954682  
     145A      0.967775   146A      0.977357   147A      0.990575  
     148A      0.998779   149A      1.010814   150A      1.014738  
     151A      1.017506   152A      1.031052   153A      1.057826  
     154A      1.077038   155A      1.078096   156A      1.084650  
     157A      1.102702   158A      1.114895   159A      1.127155  
     160A      1.132213   161A      1.140554   162A      1.149745  
     163A      1.167314   164A      1.170287   165A      1.173005  
     166A      1.196060   167A      1.209378   168A      1.217854  
     169A      1.260851   170A      1.276936   171A      1.289901  
     172A      1.296314   173A      1.302831   174A      1.311330  
     175A      1.317281   176A      1.346365   177A      1.382438  
     178A      1.385586   179A      1.398536   180A      1.451859  
     181A      1.493533   182A      1.504069   183A      1.514387  
     184A      1.518561   185A      1.540427   186A      1.574252  
     187A      1.575086   188A      1.596704   189A      1.652716  
     190A      1.659653   191A      1.671768   192A      1.705654  
     193A      1.724970   194A      1.783151   195A      1.799764  
     196A      1.807286   197A      1.866698   198A      1.881816  
     199A      1.924509   200A      1.965322   201A      2.022697  
     202A      2.025633   203A      2.038633   204A      2.073269  
     205A      2.099772   206A      2.107590   207A      2.118199  
     208A      2.126768   209A      2.131287   210A      2.136244  
     211A      2.148311   212A      2.169416   213A      2.179476  
     214A      2.184623   215A      2.228415   216A      2.251630  
     217A      2.267139   218A      2.276368   219A      2.301126  
     220A      2.307358   221A      2.326080   222A      2.332758  
     223A      2.377748   224A      2.403824   225A      2.412079  
     226A      2.417887   227A      2.454576   228A      2.469851  
     229A      2.492723   230A      2.497442   231A      2.515895  
     232A      2.524448   233A      2.544526   234A      2.546081  
     235A      2.575656   236A      2.585896   237A      2.598607  
     238A      2.633959   239A      2.695372   240A      2.734484  
     241A      2.747294   242A      2.767165   243A      2.789263  
     244A      2.794212   245A      2.803739   246A      2.829762  
     247A      2.838140   248A      2.867218   249A      2.895431  
     250A      2.932435   251A      2.948266   252A      2.953283  
     253A      2.981040   254A      3.042827   255A      3.051241  
     256A      3.069978   257A      3.075160   258A      3.132347  
     259A      3.158755   260A      3.182140   261A      3.199695  
     262A      3.208888   263A      3.212485   264A      3.334838  
     265A      3.339745   266A      3.353986   267A      3.354851  
     268A      3.361712   269A      3.457487   270A      3.493669  
     271A      3.518609   272A      3.568719   273A      3.608278  
     274A      3.705881   275A      3.725630   276A      3.768470  
     277A      3.777493   278A      3.796732   279A      3.856808  
     280A      3.869771   281A      4.002809   282A      4.109862  
     283A      4.211520   284A      4.635541   285A      4.637965  
     286A      4.695730   287A      4.771093   288A      4.879020  
     289A      5.020273   290A      5.253762   291A      5.372108  
     292A      5.494003   293A      5.609242   294A      5.715016  
     295A      5.882765   296A      6.088332   297A      6.196996  
     298A     18.254311   299A     18.589017   300A     19.300118  
     301A     25.311144   302A     25.451747  

    Final Occupation by Irrep:
              A 
    DOCC [    18 ]

  @DF-RHF Final Energy:  -224.84369968066909

   => Energetics <=

    Nuclear Repulsion Energy =            164.0866959941843959
    One-Electron Energy =                -628.9319400481194862
    Two-Electron Energy =                 240.0015443732659719
    Total Energy =                       -224.8436996806690900

Computation Completed


Properties will be evaluated at   0.000000,   0.000000,   0.000000 [a0]

Properties computed using the SCF density matrix

  Nuclear Dipole Moment: [e a0]
     X:  -102.4221      Y:  -129.0981      Z:   128.4908

  Electronic Dipole Moment: [e a0]
     X:   103.2258      Y:   129.2614      Z:  -129.8232

  Dipole Moment: [e a0]
     X:     0.8038      Y:     0.1634      Z:    -1.3324     Total:     1.5646

  Dipole Moment: [D]
     X:     2.0430      Y:     0.4153      Z:    -3.3867     Total:     3.9769


*** tstop() called on ds1 at Tue Sep 14 17:33:42 2021
Module time:
	user time   =      19.89 seconds =       0.33 minutes
	system time =       0.38 seconds =       0.01 minutes
	total time  =          4 seconds =       0.07 minutes
Total time:
	user time   =      48.96 seconds =       0.82 minutes
	system time =       1.00 seconds =       0.02 minutes
	total time  =         10 seconds =       0.17 minutes

  //>>>>>>>>>>>>>>>>>>>>>>>>>>>>>>>>>>>//
  //            Monomer B HF           //
  //<<<<<<<<<<<<<<<<<<<<<<<<<<<<<<<<<<<//


*** tstart() called on ds1
*** at Tue Sep 14 17:33:42 2021

   => Loading Basis Set <=

    Name: AUG-CC-PVDZ
    Role: ORBITAL
    Keyword: BASIS
    atoms 1-2, 10-11 entry N          line   218 file /theoryfs2/ds/csargent/miniconda3/envs/cle/share/psi4/basis/aug-cc-pvdz.gbs 
    atoms 3-6, 12-15 entry H          line    40 file /theoryfs2/ds/csargent/miniconda3/envs/cle/share/psi4/basis/aug-cc-pvdz.gbs 
    atoms 7-9, 16-18 entry C          line   182 file /theoryfs2/ds/csargent/miniconda3/envs/cle/share/psi4/basis/aug-cc-pvdz.gbs 


         ---------------------------------------------------------
                                   SCF
               by Justin Turney, Rob Parrish, Andy Simmonett
                          and Daniel G. A. Smith
                              RHF Reference
                        6 Threads,   6675 MiB Core
         ---------------------------------------------------------

  ==> Geometry <==

    Molecular point group: c1
    Full point group: C1

    Geometry (in Bohr), charge = 0, multiplicity = 1:

       Center              X                  Y                   Z               Mass       
    ------------   -----------------  -----------------  -----------------  -----------------
      Gh(N)          -4.293096210000    -3.068374310000     5.305162310000    14.003074004430
      Gh(N)          -2.158473710000    -2.926272960000     1.720374480000    14.003074004430
      Gh(H)          -0.025455870000    -6.359035750000     2.220464520000     1.007825032230
      Gh(H)          -2.685669680000    -6.532602410000     6.614459540000     1.007825032230
      Gh(H)          -4.743884230000    -0.006090060000     2.756159680000     1.007825032230
      Gh(H)          -1.410455400000    -2.247231470000     0.000000000000     1.007825032230
      Gh(C)          -1.437379910000    -5.075048480000     2.940658910000    12.000000000000
      Gh(C)          -2.769007820000    -5.146099160000     5.135228800000    12.000000000000
      Gh(C)          -3.859550360000    -1.777281980000     3.210934110000    12.000000000000
         N           10.035185220000     7.081722650000     5.305162310000    14.003074004430
         N           12.169807720000     7.223824010000     1.720374480000    14.003074004430
         H           14.302825560000     3.791061220000     2.220464520000     1.007825032230
         H           11.642611750000     3.617494560000     6.614459540000     1.007825032230
         H            9.584397200000    10.144006910000     2.756159680000     1.007825032230
         H           12.917826020000     7.902865500000     0.000000000000     1.007825032230
         C           12.890901520000     5.075048480000     2.940658910000    12.000000000000
         C           11.559273610000     5.003997800000     5.135228800000    12.000000000000
         C           10.468731070000     8.372814990000     3.210934110000    12.000000000000

  Running in c1 symmetry.

  Rotational constants: A =      0.02676  B =      0.00433  C =      0.00390 [cm^-1]
  Rotational constants: A =    802.11264  B =    129.69130  C =    116.82392 [MHz]
  Nuclear repulsion =  164.086695882942763

  Charge       = 0
  Multiplicity = 1
  Electrons    = 36
  Nalpha       = 18
  Nbeta        = 18

  ==> Algorithm <==

  SCF Algorithm Type is DF.
  DIIS enabled.
  MOM disabled.
  Fractional occupation disabled.
  Guess Type is SAD.
  Energy threshold   = 1.00e-10
  Density threshold  = 1.00e-10
  Integral threshold = 1.00e-12

  ==> Primary Basis <==

  Basis Set: AUG-CC-PVDZ
    Blend: AUG-CC-PVDZ
    Number of shells: 130
    Number of basis functions: 302
    Number of Cartesian functions: 322
    Spherical Harmonics?: true
    Max angular momentum: 2

   => Loading Basis Set <=

    Name: (AUG-CC-PVDZ AUX)
    Role: JKFIT
    Keyword: DF_BASIS_SCF
    atoms 1-2, 10-11 entry N          line   212 file /theoryfs2/ds/csargent/miniconda3/envs/cle/share/psi4/basis/aug-cc-pvdz-jkfit.gbs 
    atoms 3-6, 12-15 entry H          line    70 file /theoryfs2/ds/csargent/miniconda3/envs/cle/share/psi4/basis/aug-cc-pvdz-jkfit.gbs 
    atoms 7-9, 16-18 entry C          line   154 file /theoryfs2/ds/csargent/miniconda3/envs/cle/share/psi4/basis/aug-cc-pvdz-jkfit.gbs 

  ==> Integral Setup <==

  ==> DiskDFJK: Density-Fitted J/K Matrices <==

    J tasked:                  Yes
    K tasked:                  Yes
    wK tasked:                  No
    OpenMP threads:              6
    Integrals threads:           6
    Memory [MiB]:             5006
    Algorithm:                Core
    Integral Cache:           LOAD
    Schwarz Cutoff:          1E-12
    Fitting Condition:       1E-10

   => Auxiliary Basis Set <=

  Basis Set: (AUG-CC-PVDZ AUX)
    Blend: AUG-CC-PVDZ-JKFIT
    Number of shells: 376
    Number of basis functions: 1116
    Number of Cartesian functions: 1290
    Spherical Harmonics?: true
    Max angular momentum: 3

  Minimum eigenvalue in the overlap matrix is 2.1378859861E-05.
  Reciprocal condition number of the overlap matrix is 1.7991297908E-06.
    Using symmetric orthogonalization.

  ==> Pre-Iterations <==

  SCF Guess: Superposition of Atomic Densities via on-the-fly atomic UHF (no occupation information).

   -------------------------
    Irrep   Nso     Nmo    
   -------------------------
     A        302     302 
   -------------------------
    Total     302     302
   -------------------------

  ==> Iterations <==

                           Total Energy        Delta E     RMS |[F,P]|

   @DF-RHF iter SAD:  -224.55857175364704   -2.24559e+02   0.00000e+00 
   @DF-RHF iter   1:  -224.69806814133364   -1.39496e-01   1.63068e-03 DIIS
   @DF-RHF iter   2:  -224.80532490353403   -1.07257e-01   9.27388e-04 DIIS
   @DF-RHF iter   3:  -224.84169289035722   -3.63680e-02   1.74021e-04 DIIS
   @DF-RHF iter   4:  -224.84337818742844   -1.68530e-03   7.98985e-05 DIIS
   @DF-RHF iter   5:  -224.84367978228477   -3.01595e-04   1.26458e-05 DIIS
   @DF-RHF iter   6:  -224.84369712187896   -1.73396e-05   5.61905e-06 DIIS
   @DF-RHF iter   7:  -224.84370021075944   -3.08888e-06   2.19526e-06 DIIS
   @DF-RHF iter   8:  -224.84370094293513   -7.32176e-07   7.77686e-07 DIIS
   @DF-RHF iter   9:  -224.84370105377184   -1.10837e-07   1.87983e-07 DIIS
   @DF-RHF iter  10:  -224.84370105930932   -5.53749e-09   7.33149e-08 DIIS
   @DF-RHF iter  11:  -224.84370106013532   -8.25992e-10   3.26955e-08 DIIS
   @DF-RHF iter  12:  -224.84370106028780   -1.52482e-10   9.70978e-09 DIIS
   @DF-RHF iter  13:  -224.84370106030076   -1.29603e-11   3.58890e-09 DIIS
   @DF-RHF iter  14:  -224.84370106030238   -1.62004e-12   1.58306e-09 DIIS
   @DF-RHF iter  15:  -224.84370106030244   -5.68434e-14   5.27626e-10 DIIS
   @DF-RHF iter  16:  -224.84370106030283   -3.97904e-13   2.34549e-10 DIIS
   @DF-RHF iter  17:  -224.84370106030298   -1.42109e-13   4.71156e-11 DIIS
  Energy and wave function converged.


  ==> Post-Iterations <==

    Orbital Energies [Eh]
    ---------------------

    Doubly Occupied:                                                      

       1A    -15.637072     2A    -15.551218     3A    -11.300917  
       4A    -11.263160     5A    -11.245652     6A     -1.352868  
       7A     -1.169100     8A     -1.012099     9A     -0.824390  
      10A     -0.803732    11A     -0.760667    12A     -0.610097  
      13A     -0.603958    14A     -0.601923    15A     -0.570943  
      16A     -0.435484    17A     -0.400466    18A     -0.320686  

    Virtual:                                                              

      19A      0.023306    20A      0.026542    21A      0.039596  
      22A      0.043422    23A      0.046159    24A      0.050155  
      25A      0.061834    26A      0.068922    27A      0.079142  
      28A      0.087687    29A      0.091630    30A      0.100653  
      31A      0.101769    32A      0.118475    33A      0.121888  
      34A      0.125601    35A      0.127539    36A      0.129069  
      37A      0.130199    38A      0.133534    39A      0.136539  
      40A      0.140396    41A      0.140841    42A      0.149900  
      43A      0.157458    44A      0.159463    45A      0.163476  
      46A      0.175973    47A      0.179223    48A      0.189236  
      49A      0.194938    50A      0.207712    51A      0.211877  
      52A      0.214350    53A      0.218993    54A      0.222102  
      55A      0.223488    56A      0.224832    57A      0.235986  
      58A      0.237524    59A      0.243827    60A      0.262663  
      61A      0.268535    62A      0.274627    63A      0.280626  
      64A      0.301778    65A      0.305644    66A      0.309822  
      67A      0.314924    68A      0.322134    69A      0.338857  
      70A      0.361561    71A      0.367494    72A      0.371139  
      73A      0.377479    74A      0.381690    75A      0.388335  
      76A      0.396091    77A      0.400884    78A      0.419118  
      79A      0.428773    80A      0.430655    81A      0.438852  
      82A      0.444229    83A      0.450320    84A      0.454772  
      85A      0.458001    86A      0.469841    87A      0.473446  
      88A      0.481303    89A      0.484728    90A      0.487669  
      91A      0.491458    92A      0.520798    93A      0.523770  
      94A      0.538973    95A      0.542156    96A      0.546674  
      97A      0.552917    98A      0.556799    99A      0.560476  
     100A      0.568506   101A      0.576785   102A      0.582313  
     103A      0.590627   104A      0.595272   105A      0.599608  
     106A      0.609513   107A      0.615375   108A      0.616737  
     109A      0.621737   110A      0.638207   111A      0.642565  
     112A      0.653956   113A      0.669482   114A      0.672309  
     115A      0.678269   116A      0.680391   117A      0.684214  
     118A      0.687047   119A      0.713921   120A      0.715262  
     121A      0.726182   122A      0.739731   123A      0.741687  
     124A      0.758792   125A      0.763547   126A      0.768011  
     127A      0.791396   128A      0.793842   129A      0.803272  
     130A      0.810217   131A      0.814673   132A      0.817417  
     133A      0.826202   134A      0.839541   135A      0.860995  
     136A      0.863005   137A      0.872509   138A      0.886079  
     139A      0.889190   140A      0.891064   141A      0.912759  
     142A      0.923338   143A      0.929861   144A      0.954519  
     145A      0.972096   146A      0.977189   147A      0.994847  
     148A      0.999034   149A      1.011796   150A      1.017311  
     151A      1.019772   152A      1.031004   153A      1.062162  
     154A      1.077403   155A      1.083496   156A      1.085637  
     157A      1.107483   158A      1.119455   159A      1.127688  
     160A      1.135340   161A      1.142244   162A      1.150074  
     163A      1.167479   164A      1.174039   165A      1.177953  
     166A      1.200652   167A      1.214149   168A      1.217677  
     169A      1.260998   170A      1.281107   171A      1.293763  
     172A      1.300034   173A      1.302890   174A      1.316134  
     175A      1.321496   176A      1.350587   177A      1.385260  
     178A      1.387137   179A      1.398286   180A      1.451500  
     181A      1.497940   182A      1.503530   183A      1.518433  
     184A      1.518838   185A      1.544458   186A      1.574179  
     187A      1.575027   188A      1.596709   189A      1.652778  
     190A      1.663959   191A      1.672119   192A      1.706017  
     193A      1.724815   194A      1.783749   195A      1.800135  
     196A      1.807145   197A      1.866297   198A      1.881777  
     199A      1.924418   200A      1.965223   201A      2.022068  
     202A      2.026034   203A      2.042785   204A      2.073186  
     205A      2.104459   206A      2.107183   207A      2.122677  
     208A      2.126852   209A      2.135014   210A      2.136076  
     211A      2.152681   212A      2.169123   213A      2.180210  
     214A      2.188156   215A      2.232671   216A      2.255753  
     217A      2.267245   218A      2.276302   219A      2.301428  
     220A      2.312060   221A      2.330124   222A      2.332782  
     223A      2.381888   224A      2.408597   225A      2.416339  
     226A      2.418320   227A      2.458875   228A      2.474183  
     229A      2.496849   230A      2.497139   231A      2.514654  
     232A      2.529124   233A      2.545606   234A      2.548605  
     235A      2.579732   236A      2.586628   237A      2.602847  
     238A      2.634031   239A      2.699688   240A      2.734567  
     241A      2.747211   242A      2.767273   243A      2.793850  
     244A      2.794371   245A      2.803610   246A      2.832531  
     247A      2.837969   248A      2.867341   249A      2.899225  
     250A      2.936638   251A      2.952621   252A      2.954033  
     253A      2.981184   254A      3.046839   255A      3.051226  
     256A      3.070032   257A      3.079455   258A      3.137102  
     259A      3.162871   260A      3.186255   261A      3.199511  
     262A      3.208834   263A      3.216856   264A      3.334811  
     265A      3.344864   266A      3.354626   267A      3.358397  
     268A      3.366114   269A      3.461990   270A      3.497930  
     271A      3.518618   272A      3.574283   273A      3.612422  
     274A      3.710491   275A      3.730168   276A      3.768992  
     277A      3.781792   278A      3.801597   279A      3.861494  
     280A      3.874066   281A      4.007054   282A      4.109691  
     283A      4.216153   284A      4.640138   285A      4.642164  
     286A      4.699486   287A      4.775419   288A      4.884118  
     289A      5.025058   290A      5.258161   291A      5.376459  
     292A      5.498071   293A      5.613559   294A      5.719415  
     295A      5.887177   296A      6.092839   297A      6.201406  
     298A     18.258573   299A     18.593701   300A     19.304115  
     301A     25.315302   302A     25.456512  

    Final Occupation by Irrep:
              A 
    DOCC [    18 ]

  @DF-RHF Final Energy:  -224.84370106030298

   => Energetics <=

    Nuclear Repulsion Energy =            164.0866958829427631
    One-Electron Energy =                -628.9319316401455353
    Two-Electron Energy =                 240.0015346968997960
    Total Energy =                       -224.8437010603029762

Computation Completed


Properties will be evaluated at   0.000000,   0.000000,   0.000000 [a0]

Properties computed using the SCF density matrix

  Nuclear Dipole Moment: [e a0]
     X:   413.3960      Y:   236.3054      Z:   128.4908

  Electronic Dipole Moment: [e a0]
     X:  -412.5923      Y:  -236.1421      Z:  -129.8232

  Dipole Moment: [e a0]
     X:     0.8038      Y:     0.1633      Z:    -1.3324     Total:     1.5646

  Dipole Moment: [D]
     X:     2.0429      Y:     0.4151      Z:    -3.3867     Total:     3.9769


*** tstop() called on ds1 at Tue Sep 14 17:33:46 2021
Module time:
	user time   =      20.17 seconds =       0.34 minutes
	system time =       0.38 seconds =       0.01 minutes
	total time  =          4 seconds =       0.07 minutes
Total time:
	user time   =      69.28 seconds =       1.15 minutes
	system time =       1.38 seconds =       0.02 minutes
	total time  =         14 seconds =       0.23 minutes
  Constructing Basis Sets for SAPT...

   => Loading Basis Set <=

    Name: (AUG-CC-PVDZ AUX)
    Role: RIFIT
    Keyword: DF_BASIS_SAPT
    atoms 1-2, 10-11 entry N          line   158 file /theoryfs2/ds/csargent/miniconda3/envs/cle/share/psi4/basis/aug-cc-pvdz-ri.gbs 
    atoms 3-6, 12-15 entry H          line    30 file /theoryfs2/ds/csargent/miniconda3/envs/cle/share/psi4/basis/aug-cc-pvdz-ri.gbs 
    atoms 7-9, 16-18 entry C          line   112 file /theoryfs2/ds/csargent/miniconda3/envs/cle/share/psi4/basis/aug-cc-pvdz-ri.gbs 


  //>>>>>>>>>>>>>>>>>>>>>>>>>>>>>>>>>>>//
  //               SAPT0               //
  //<<<<<<<<<<<<<<<<<<<<<<<<<<<<<<<<<<<//


*** tstart() called on ds1
*** at Tue Sep 14 17:33:46 2021

        SAPT0  
    Ed Hohenstein
     6 June 2009

      Orbital Information
  --------------------------
    NSO        =       302
    NMO        =       302
    NRI        =       904
    NOCC A     =        18
    NOCC B     =        18
    FOCC A     =         5
    FOCC B     =         5
    NVIR A     =       284
    NVIR B     =       284

    Elst10,r            =     0.000179106068 [Eh]
    Exch10              =    -0.000000000073 [Eh]
    Exch10 (S^2)        =    -0.000000000073 [Eh]

    Iter     Energy [mEh]          dE [mEh]         Residual      Time [s]
       1      -0.00265005       0.002650046       0.469325106             0
       2      -0.00240474      -0.000245304       0.099559966             0
       3      -0.00258644       0.000181697       0.044686091             0
       4      -0.00261983       0.000033393       0.010586454             0
       5      -0.00261106      -0.000008769       0.005389869             0
       6      -0.00260979      -0.000001270       0.002300765             1
       7      -0.00261089       0.000001096       0.000788430             1
       8      -0.00261096       0.000000073       0.000282945             1
       9      -0.00261088      -0.000000078       0.000074350             1
      10      -0.00261088      -0.000000001       0.000021566             1
      11      -0.00261088       0.000000004       0.000009450             1
      12      -0.00261089       0.000000000       0.000003235             1
      13      -0.00261088      -0.000000001       0.000000777             1

    CHF Iterations converged


    Iter     Energy [mEh]          dE [mEh]         Residual      Time [s]
       1      -0.00230310       0.002303105       0.510757177             1
       2      -0.00210857      -0.000194530       0.135419649             1
       3      -0.00226450       0.000155927       0.062092322             1
       4      -0.00232823       0.000063724       0.011649143             1
       5      -0.00232116      -0.000007070       0.004316676             1
       6      -0.00231997      -0.000001181       0.001490507             1
       7      -0.00232038       0.000000405       0.000487672             1
       8      -0.00232050       0.000000118       0.000162306             1
       9      -0.00232046      -0.000000034       0.000075762             2
      10      -0.00232044      -0.000000023       0.000018772             2
      11      -0.00232045       0.000000007       0.000007575             2
      12      -0.00232045       0.000000001       0.000002267             2
      13      -0.00232045      -0.000000001       0.000000842             2

    CHF Iterations converged

    Ind20,r (A<-B)      =    -0.000002610885 [Eh]
    Ind20,r (B<-A)      =    -0.000002320448 [Eh]
    Ind20,r             =    -0.000004931332 [Eh]
    Exch-Ind20,r (A<-B) =     0.000000001776 [Eh]
    Exch-Ind20,r (B<-A) =     0.000000004108 [Eh]
    Exch-Ind20,r        =     0.000000005884 [Eh]
    Disp20              =    -0.000037307565 [Eh]
    Disp20 (SS)         =    -0.000018653783 [Eh]
    Disp20 (OS)         =    -0.000018653783 [Eh]
    Exch-Disp20         =     0.000000001007 [Eh]
    Exch-Disp20 (SS)    =     0.000000000858 [Eh]
    Exch-Disp20 (OS)    =     0.000000000150 [Eh]

    SAPT Results 
  --------------------------------------------------------------------------------------------------------
    Electrostatics                  0.17910607 [mEh]       0.11239075 [kcal/mol]       0.47024292 [kJ/mol]
      Elst10,r                      0.17910607 [mEh]       0.11239075 [kcal/mol]       0.47024292 [kJ/mol]

    Exchange                       -0.00000007 [mEh]      -0.00000005 [kcal/mol]      -0.00000019 [kJ/mol]
      Exch10                       -0.00000007 [mEh]      -0.00000005 [kcal/mol]      -0.00000019 [kJ/mol]
      Exch10(S^2)                  -0.00000007 [mEh]      -0.00000005 [kcal/mol]      -0.00000019 [kJ/mol]

    Induction                      -0.00488826 [mEh]      -0.00306743 [kcal/mol]      -0.01283412 [kJ/mol]
      Ind20,r                      -0.00493133 [mEh]      -0.00309446 [kcal/mol]      -0.01294721 [kJ/mol]
      Exch-Ind20,r                  0.00000588 [mEh]       0.00000369 [kcal/mol]       0.00001545 [kJ/mol]
      delta HF,r (2)                0.00003719 [mEh]       0.00002334 [kcal/mol]       0.00009765 [kJ/mol]

    Dispersion                     -0.03730656 [mEh]      -0.02341022 [kcal/mol]      -0.09794835 [kJ/mol]
      Disp20                       -0.03730757 [mEh]      -0.02341085 [kcal/mol]      -0.09795100 [kJ/mol]
      Exch-Disp20                   0.00000101 [mEh]       0.00000063 [kcal/mol]       0.00000264 [kJ/mol]
      Disp20 (SS)                  -0.01865378 [mEh]      -0.01170543 [kcal/mol]      -0.04897550 [kJ/mol]
      Disp20 (OS)                  -0.01865378 [mEh]      -0.01170543 [kcal/mol]      -0.04897550 [kJ/mol]
      Exch-Disp20 (SS)              0.00000086 [mEh]       0.00000054 [kcal/mol]       0.00000225 [kJ/mol]
      Exch-Disp20 (OS)              0.00000015 [mEh]       0.00000009 [kcal/mol]       0.00000039 [kJ/mol]

  Total HF                          0.17421774 [mEh]       0.10932328 [kcal/mol]       0.45740861 [kJ/mol]
  Total SAPT0                       0.13691118 [mEh]       0.08591306 [kcal/mol]       0.35946026 [kJ/mol]

  Special recipe for scaled SAPT0 (see Manual):
    Electrostatics sSAPT0           0.17910607 [mEh]       0.11239075 [kcal/mol]       0.47024292 [kJ/mol]
    Exchange sSAPT0                -0.00000007 [mEh]      -0.00000005 [kcal/mol]      -0.00000019 [kJ/mol]
    Induction sSAPT0               -0.00488826 [mEh]      -0.00306743 [kcal/mol]      -0.01283412 [kJ/mol]
    Dispersion sSAPT0              -0.03730656 [mEh]      -0.02341022 [kcal/mol]      -0.09794835 [kJ/mol]
  Total sSAPT0                      0.13691118 [mEh]       0.08591306 [kcal/mol]       0.35946026 [kJ/mol]
  --------------------------------------------------------------------------------------------------------

*** tstop() called on ds1 at Tue Sep 14 17:33:56 2021
Module time:
	user time   =      47.42 seconds =       0.79 minutes
	system time =       4.20 seconds =       0.07 minutes
	total time  =         10 seconds =       0.17 minutes
Total time:
	user time   =     117.34 seconds =       1.96 minutes
	system time =       5.60 seconds =       0.09 minutes
	total time  =         24 seconds =       0.40 minutes


Warning! sapt0 does not have an associated derived wavefunction.The returned wavefunction is the dimer SCF wavefunction.


    Psi4 stopped on: Tuesday, 14 September 2021 05:33PM
    Psi4 wall time for execution: 0:00:24.42

*** Psi4 exiting successfully. Buy a developer a beer!
