
    -----------------------------------------------------------------------
          Psi4: An Open-Source Ab Initio Electronic Structure Package
                               Psi4 1.4rc3

                         Git: Rev {HEAD} 080dba6


    D. G. A. Smith, L. A. Burns, A. C. Simmonett, R. M. Parrish,
    M. C. Schieber, R. Galvelis, P. Kraus, H. Kruse, R. Di Remigio,
    A. Alenaizan, A. M. James, S. Lehtola, J. P. Misiewicz, M. Scheurer,
    R. A. Shaw, J. B. Schriber, Y. Xie, Z. L. Glick, D. A. Sirianni,
    J. S. O'Brien, J. M. Waldrop, A. Kumar, E. G. Hohenstein,
    B. P. Pritchard, B. R. Brooks, H. F. Schaefer III, A. Yu. Sokolov,
    K. Patkowski, A. E. DePrince III, U. Bozkaya, R. A. King,
    F. A. Evangelista, J. M. Turney, T. D. Crawford, C. D. Sherrill,
    J. Chem. Phys. 152(18) 184108 (2020). https://doi.org/10.1063/5.0006002

                            Additional Code Authors
    E. T. Seidl, C. L. Janssen, E. F. Valeev, M. L. Leininger,
    J. F. Gonthier, R. M. Richard, H. R. McAlexander, M. Saitow, X. Wang,
    P. Verma, and M. H. Lechner

             Previous Authors, Complete List of Code Contributors,
                       and Citations for Specific Modules
    https://github.com/psi4/psi4/blob/master/codemeta.json
    https://github.com/psi4/psi4/graphs/contributors
    http://psicode.org/psi4manual/master/introduction.html#citing-psifour

    -----------------------------------------------------------------------


    Psi4 started on: Tuesday, 14 September 2021 06:15PM

    Process ID: 5389
    Host:       ds1
    PSIDATADIR: /theoryfs2/ds/csargent/miniconda3/envs/cle/share/psi4
    Memory:     500.0 MiB
    Threads:    6

  ==> Input File <==

--------------------------------------------------------------------------
# PSI4 file produced by CrystaLattE

# Generated from:               imidazole.xyz
# Psithon input for N-mer:      2mer-0+369
# Number of atoms per monomer:  [9, 9]
# Number of replicas:           1
# COM priority:                 1.256379572623e-05
# Minimum COM separations:      22.763
# Separation priority:          2.243913202748e-05
# Minimum monomer separations:  18.761
# Cutoff priority:              6.329091949339e-07
# Nuclear repulsion energy:     358.3923964192737

memory 7 GB

molecule Dimer_0_369 {
  N           -4.29309621      -3.06837431       5.30516231
  N           -2.15847371      -2.92627296       1.72037448
  H           -0.02545587      -6.35903575       2.22046452
  H           -2.68566968      -6.53260241       6.61445954
  H           -4.74388423      -0.00609006       2.75615968
  H           -1.41045540      -2.24723147       0.00000000
  C           -1.43737991      -5.07504848       2.94065891
  C           -2.76900782      -5.14609916       5.13522880
  C           -3.85955036      -1.77728198       3.21093411
--
  N           -1.12933827      14.12182991     -37.06168912
  N           -3.26396077      13.97972855     -33.47690129
  H           -5.39697861      17.41249134     -33.97699133
  H           -2.73676480      17.58605800     -38.37098635
  H           -0.67855025      11.05954565     -34.51268649
  H           -4.01197907      13.30068706     -31.75652681
  C           -3.98505457      16.12850408     -34.69718572
  C           -2.65342666      16.19955476     -36.89175561
  C           -1.56288412      12.83073757     -34.96746092
units = au
no_com
no_reorient
}

set {
  e_convergence 10
  d_convergence 10
  scf_type df
  mp2_type df
  cc_type df
  freeze_core true
}

energy('sapt0/aug-cc-pvdz')

--------------------------------------------------------------------------

  Memory set to   6.519 GiB by Python driver.

Scratch directory: /scratch/csargent/psi4.31446.79897/

Scratch directory: /scratch/csargent/psi4.31446.79897/

  //>>>>>>>>>>>>>>>>>>>>>>>>>>>>>>>>>>>//
  //              Dimer HF             //
  //<<<<<<<<<<<<<<<<<<<<<<<<<<<<<<<<<<<//


*** tstart() called on ds1
*** at Tue Sep 14 18:15:53 2021

   => Loading Basis Set <=

    Name: AUG-CC-PVDZ
    Role: ORBITAL
    Keyword: BASIS
    atoms 1-2, 10-11 entry N          line   218 file /theoryfs2/ds/csargent/miniconda3/envs/cle/share/psi4/basis/aug-cc-pvdz.gbs
    atoms 3-6, 12-15 entry H          line    40 file /theoryfs2/ds/csargent/miniconda3/envs/cle/share/psi4/basis/aug-cc-pvdz.gbs
    atoms 7-9, 16-18 entry C          line   182 file /theoryfs2/ds/csargent/miniconda3/envs/cle/share/psi4/basis/aug-cc-pvdz.gbs


         ---------------------------------------------------------
                                   SCF
               by Justin Turney, Rob Parrish, Andy Simmonett
                          and Daniel G. A. Smith
                              RHF Reference
                        6 Threads,   6675 MiB Core
         ---------------------------------------------------------

  ==> Geometry <==

    Molecular point group: c1
    Full point group: C1

    Geometry (in Bohr), charge = 0, multiplicity = 1:

       Center              X                  Y                   Z               Mass
    ------------   -----------------  -----------------  -----------------  -----------------
         N           -4.293096210000    -3.068374310000     5.305162310000    14.003074004430
         N           -2.158473710000    -2.926272960000     1.720374480000    14.003074004430
         H           -0.025455870000    -6.359035750000     2.220464520000     1.007825032230
         H           -2.685669680000    -6.532602410000     6.614459540000     1.007825032230
         H           -4.743884230000    -0.006090060000     2.756159680000     1.007825032230
         H           -1.410455400000    -2.247231470000     0.000000000000     1.007825032230
         C           -1.437379910000    -5.075048480000     2.940658910000    12.000000000000
         C           -2.769007820000    -5.146099160000     5.135228800000    12.000000000000
         C           -3.859550360000    -1.777281980000     3.210934110000    12.000000000000
         N           -1.129338270000    14.121829910000   -37.061689120000    14.003074004430
         N           -3.263960770000    13.979728550000   -33.476901290000    14.003074004430
         H           -5.396978610000    17.412491340000   -33.976991330000     1.007825032230
         H           -2.736764800000    17.586058000000   -38.370986350000     1.007825032230
         H           -0.678550250000    11.059545650000   -34.512686490000     1.007825032230
         H           -4.011979070000    13.300687060000   -31.756526810000     1.007825032230
         C           -3.985054570000    16.128504080000   -34.697185720000    12.000000000000
         C           -2.653426660000    16.199554760000   -36.891755610000    12.000000000000
         C           -1.562884120000    12.830737570000   -34.967460920000    12.000000000000

  Running in c1 symmetry.

  Rotational constants: A =      0.04546  B =      0.00059  C =      0.00059 [cm^-1]
  Rotational constants: A =   1362.94252  B =     17.66263  C =     17.55470 [MHz]
  Nuclear repulsion =  358.392396445385884

  Charge       = 0
  Multiplicity = 1
  Electrons    = 72
  Nalpha       = 36
  Nbeta        = 36

  ==> Algorithm <==

  SCF Algorithm Type is DF.
  DIIS enabled.
  MOM disabled.
  Fractional occupation disabled.
  Guess Type is SAD.
  Energy threshold   = 1.00e-10
  Density threshold  = 1.00e-10
  Integral threshold = 1.00e-12

  ==> Primary Basis <==

  Basis Set: AUG-CC-PVDZ
    Blend: AUG-CC-PVDZ
    Number of shells: 130
    Number of basis functions: 302
    Number of Cartesian functions: 322
    Spherical Harmonics?: true
    Max angular momentum: 2

   => Loading Basis Set <=

    Name: (AUG-CC-PVDZ AUX)
    Role: JKFIT
    Keyword: DF_BASIS_SCF
    atoms 1-2, 10-11 entry N          line   212 file /theoryfs2/ds/csargent/miniconda3/envs/cle/share/psi4/basis/aug-cc-pvdz-jkfit.gbs
    atoms 3-6, 12-15 entry H          line    70 file /theoryfs2/ds/csargent/miniconda3/envs/cle/share/psi4/basis/aug-cc-pvdz-jkfit.gbs
    atoms 7-9, 16-18 entry C          line   154 file /theoryfs2/ds/csargent/miniconda3/envs/cle/share/psi4/basis/aug-cc-pvdz-jkfit.gbs

  ==> Integral Setup <==

  ==> DiskDFJK: Density-Fitted J/K Matrices <==

    J tasked:                  Yes
    K tasked:                  Yes
    wK tasked:                  No
    OpenMP threads:              6
    Integrals threads:           6
    Memory [MiB]:             5006
    Algorithm:                Core
    Integral Cache:           SAVE
    Schwarz Cutoff:          1E-12
    Fitting Condition:       1E-10

   => Auxiliary Basis Set <=

  Basis Set: (AUG-CC-PVDZ AUX)
    Blend: AUG-CC-PVDZ-JKFIT
    Number of shells: 376
    Number of basis functions: 1116
    Number of Cartesian functions: 1290
    Spherical Harmonics?: true
    Max angular momentum: 3

  Minimum eigenvalue in the overlap matrix is 2.1837063018E-05.
  Reciprocal condition number of the overlap matrix is 1.8394514153E-06.
    Using symmetric orthogonalization.

  ==> Pre-Iterations <==

  SCF Guess: Superposition of Atomic Densities via on-the-fly atomic UHF (no occupation information).

   -------------------------
    Irrep   Nso     Nmo
   -------------------------
     A        302     302
   -------------------------
    Total     302     302
   -------------------------

  ==> Iterations <==

                           Total Energy        Delta E     RMS |[F,P]|

   @DF-RHF iter SAD:  -449.11714338582004   -4.49117e+02   0.00000e+00
   @DF-RHF iter   1:  -449.39599301974260   -2.78850e-01   2.30647e-03 DIIS
   @DF-RHF iter   2:  -449.61051218431220   -2.14519e-01   1.31221e-03 DIIS
   @DF-RHF iter   3:  -449.68332807906103   -7.28159e-02   2.46284e-04 DIIS
   @DF-RHF iter   4:  -449.68670190461921   -3.37383e-03   1.13104e-04 DIIS
   @DF-RHF iter   5:  -449.68730627314932   -6.04369e-04   1.78848e-05 DIIS
   @DF-RHF iter   6:  -449.68734096067851   -3.46875e-05   7.94918e-06 DIIS
   @DF-RHF iter   7:  -449.68734714011566   -6.17944e-06   3.10584e-06 DIIS
   @DF-RHF iter   8:  -449.68734860476707   -1.46465e-06   1.09992e-06 DIIS
   @DF-RHF iter   9:  -449.68734882648715   -2.21720e-07   2.65937e-07 DIIS
   @DF-RHF iter  10:  -449.68734883757020   -1.10830e-08   1.03728e-07 DIIS
   @DF-RHF iter  11:  -449.68734883922599   -1.65579e-09   4.62638e-08 DIIS
   @DF-RHF iter  12:  -449.68734883952965   -3.03658e-10   1.37397e-08 DIIS
   @DF-RHF iter  13:  -449.68734883955614   -2.64890e-11   5.07943e-09 DIIS
   @DF-RHF iter  14:  -449.68734883956006   -3.92220e-12   2.24078e-09 DIIS
   @DF-RHF iter  15:  -449.68734883956017   -1.13687e-13   7.46546e-10 DIIS
   @DF-RHF iter  16:  -449.68734883956068   -5.11591e-13   3.32120e-10 DIIS
   @DF-RHF iter  17:  -449.68734883956040    2.84217e-13   6.67241e-11 DIIS
  Energy and wave function converged.


  ==> Post-Iterations <==

    Orbital Energies [Eh]
    ---------------------

    Doubly Occupied:

       1A    -15.637850     2A    -15.637850     3A    -15.551969
       4A    -15.551969     5A    -11.301681     6A    -11.301681
       7A    -11.263896     8A    -11.263896     9A    -11.246380
      10A    -11.246380    11A     -1.353629    12A     -1.353629
      13A     -1.169857    14A     -1.169857    15A     -1.012846
      16A     -1.012846    17A     -0.825157    18A     -0.825157
      19A     -0.804478    20A     -0.804478    21A     -0.761426
      22A     -0.761426    23A     -0.610851    24A     -0.610851
      25A     -0.604721    26A     -0.604721    27A     -0.602670
      28A     -0.602670    29A     -0.571680    30A     -0.571680
      31A     -0.436225    32A     -0.436225    33A     -0.401216
      34A     -0.401216    35A     -0.321428    36A     -0.321428

    Virtual:

      37A      0.024462    38A      0.024462    39A      0.040799
      40A      0.040799    41A      0.049295    42A      0.049295
      43A      0.061131    44A      0.061131    45A      0.088320
      46A      0.088320    47A      0.100622    48A      0.100622
      49A      0.120051    50A      0.120051    51A      0.124875
      52A      0.124875    53A      0.132651    54A      0.132652
      55A      0.133105    56A      0.133105    57A      0.140230
      58A      0.140230    59A      0.155805    60A      0.155805
      61A      0.157799    62A      0.157799    63A      0.171381
      64A      0.171381    65A      0.177400    66A      0.177400
      67A      0.186384    68A      0.186384    69A      0.210803
      70A      0.210803    71A      0.219531    72A      0.219531
      73A      0.231621    74A      0.231621    75A      0.240656
      76A      0.240656    77A      0.260837    78A      0.260837
      79A      0.267103    80A      0.267103    81A      0.277186
      82A      0.277186    83A      0.300979    84A      0.300979
      85A      0.313665    86A      0.313666    87A      0.337484
      88A      0.337484    89A      0.360744    90A      0.360744
      91A      0.369964    92A      0.369964    93A      0.379008
      94A      0.379008    95A      0.387527    96A      0.387527
      97A      0.396342    98A      0.396342    99A      0.416290
     100A      0.416290   101A      0.428268   102A      0.428268
     103A      0.451296   104A      0.451296   105A      0.465569
     106A      0.465569   107A      0.480440   108A      0.480440
     109A      0.485559   110A      0.485559   111A      0.487415
     112A      0.487415   113A      0.550939   114A      0.550939
     115A      0.555629   116A      0.555629   117A      0.567526
     118A      0.567526   119A      0.575690   120A      0.575690
     121A      0.593478   122A      0.593478   123A      0.598175
     124A      0.598175   125A      0.615350   126A      0.615350
     127A      0.635806   128A      0.635806   129A      0.651760
     130A      0.651760   131A      0.668543   132A      0.668543
     133A      0.670594   134A      0.670594   135A      0.677395
     136A      0.677395   137A      0.683152   138A      0.683152
     139A      0.713942   140A      0.713942   141A      0.724986
     142A      0.724986   143A      0.740489   144A      0.740489
     145A      0.761958   146A      0.761958   147A      0.766651
     148A      0.766651   149A      0.790175   150A      0.790175
     151A      0.792829   152A      0.792829   153A      0.808979
     154A      0.808979   155A      0.859644   156A      0.859644
     157A      0.870680   158A      0.870680   159A      0.885026
     160A      0.885026   161A      0.889112   162A      0.889112
     163A      0.953599   164A      0.953599   165A      0.976187
     166A      0.976187   167A      0.997603   168A      0.997603
     169A      1.009965   170A      1.009965   171A      1.016666
     172A      1.016666   173A      1.029912   174A      1.029912
     175A      1.076604   176A      1.076604   177A      1.083785
     178A      1.083785   179A      1.126243   180A      1.126243
     181A      1.139756   182A      1.139756   183A      1.148809
     184A      1.148809   185A      1.166425   186A      1.166425
     187A      1.216698   188A      1.216698   189A      1.259974
     190A      1.259974   191A      1.301808   192A      1.301808
     193A      1.384245   194A      1.384245   195A      1.397400
     196A      1.397400   197A      1.450386   198A      1.450386
     199A      1.502537   200A      1.502537   201A      1.517651
     202A      1.517651   203A      1.573389   204A      1.573389
     205A      1.573555   206A      1.573555   207A      1.595631
     208A      1.595631   209A      1.651408   210A      1.651408
     211A      1.670779   212A      1.670779   213A      1.704555
     214A      1.704555   215A      1.723700   216A      1.723700
     217A      1.781902   218A      1.781902   219A      1.798333
     220A      1.798333   221A      1.806341   222A      1.806341
     223A      1.864199   224A      1.864199   225A      1.880700
     226A      1.880700   227A      1.923631   228A      1.923631
     229A      1.964227   230A      1.964227   231A      2.021241
     232A      2.021241   233A      2.024666   234A      2.024666
     235A      2.072226   236A      2.072226   237A      2.106308
     238A      2.106308   239A      2.126024   240A      2.126024
     241A      2.135229   242A      2.135229   243A      2.167921
     244A      2.167921   245A      2.178053   246A      2.178053
     247A      2.266319   248A      2.266319   249A      2.275200
     250A      2.275200   251A      2.300148   252A      2.300148
     253A      2.331308   254A      2.331308   255A      2.417019
     256A      2.417019   257A      2.496136   258A      2.496136
     259A      2.513272   260A      2.513272   261A      2.544548
     262A      2.544548   263A      2.584996   264A      2.584996
     265A      2.633019   266A      2.633019   267A      2.733361
     268A      2.733361   269A      2.746267   270A      2.746267
     271A      2.766344   272A      2.766344   273A      2.793392
     274A      2.793392   275A      2.802689   276A      2.802689
     277A      2.836872   278A      2.836872   279A      2.866445
     280A      2.866445   281A      2.951975   282A      2.951975
     283A      2.980107   284A      2.980107   285A      3.050459
     286A      3.050459   287A      3.069163   288A      3.069163
     289A      3.198397   290A      3.198397   291A      3.208039
     292A      3.208039   293A      3.334048   294A      3.334048
     295A      3.353820   296A      3.353820   297A      3.517801
     298A      3.517801   299A      3.767540   300A      3.767540
     301A      4.108272   302A      4.108272

    Final Occupation by Irrep:
              A
    DOCC [    36 ]

  @DF-RHF Final Energy:  -449.68734883956040

   => Energetics <=

    Nuclear Repulsion Energy =            358.3923964453858844
    One-Electron Energy =               -1318.2476499310344025
    Two-Electron Energy =                 510.1679046460881182
    Total Energy =                       -449.6873488395603999

Computation Completed


Properties will be evaluated at   0.000000,   0.000000,   0.000000 [a0]

Properties computed using the SCF density matrix

  Nuclear Dipole Moment: [e a0]
     X:  -195.2076      Y:   397.9244      Z: -1143.2350

  Electronic Dipole Moment: [e a0]
     X:   195.2076      Y:  -397.9244      Z:  1143.2350

  Dipole Moment: [e a0]
     X:     0.0000      Y:    -0.0000      Z:    -0.0000     Total:     0.0000

  Dipole Moment: [D]
     X:     0.0000      Y:    -0.0000      Z:    -0.0000     Total:     0.0000


*** tstop() called on ds1 at Tue Sep 14 18:15:58 2021
Module time:
	user time   =      22.28 seconds =       0.37 minutes
	system time =       0.52 seconds =       0.01 minutes
	total time  =          5 seconds =       0.08 minutes
Total time:
	user time   =      22.28 seconds =       0.37 minutes
	system time =       0.52 seconds =       0.01 minutes
	total time  =          5 seconds =       0.08 minutes

  //>>>>>>>>>>>>>>>>>>>>>>>>>>>>>>>>>>>//
  //            Monomer A HF           //
  //<<<<<<<<<<<<<<<<<<<<<<<<<<<<<<<<<<<//


*** tstart() called on ds1
*** at Tue Sep 14 18:15:58 2021

   => Loading Basis Set <=

    Name: AUG-CC-PVDZ
    Role: ORBITAL
    Keyword: BASIS
    atoms 1-2, 10-11 entry N          line   218 file /theoryfs2/ds/csargent/miniconda3/envs/cle/share/psi4/basis/aug-cc-pvdz.gbs
    atoms 3-6, 12-15 entry H          line    40 file /theoryfs2/ds/csargent/miniconda3/envs/cle/share/psi4/basis/aug-cc-pvdz.gbs
    atoms 7-9, 16-18 entry C          line   182 file /theoryfs2/ds/csargent/miniconda3/envs/cle/share/psi4/basis/aug-cc-pvdz.gbs


         ---------------------------------------------------------
                                   SCF
               by Justin Turney, Rob Parrish, Andy Simmonett
                          and Daniel G. A. Smith
                              RHF Reference
                        6 Threads,   6675 MiB Core
         ---------------------------------------------------------

  ==> Geometry <==

    Molecular point group: c1
    Full point group: C1

    Geometry (in Bohr), charge = 0, multiplicity = 1:

       Center              X                  Y                   Z               Mass
    ------------   -----------------  -----------------  -----------------  -----------------
         N           -4.293096210000    -3.068374310000     5.305162310000    14.003074004430
         N           -2.158473710000    -2.926272960000     1.720374480000    14.003074004430
         H           -0.025455870000    -6.359035750000     2.220464520000     1.007825032230
         H           -2.685669680000    -6.532602410000     6.614459540000     1.007825032230
         H           -4.743884230000    -0.006090060000     2.756159680000     1.007825032230
         H           -1.410455400000    -2.247231470000     0.000000000000     1.007825032230
         C           -1.437379910000    -5.075048480000     2.940658910000    12.000000000000
         C           -2.769007820000    -5.146099160000     5.135228800000    12.000000000000
         C           -3.859550360000    -1.777281980000     3.210934110000    12.000000000000
      Gh(N)          -1.129338270000    14.121829910000   -37.061689120000    14.003074004430
      Gh(N)          -3.263960770000    13.979728550000   -33.476901290000    14.003074004430
      Gh(H)          -5.396978610000    17.412491340000   -33.976991330000     1.007825032230
      Gh(H)          -2.736764800000    17.586058000000   -38.370986350000     1.007825032230
      Gh(H)          -0.678550250000    11.059545650000   -34.512686490000     1.007825032230
      Gh(H)          -4.011979070000    13.300687060000   -31.756526810000     1.007825032230
      Gh(C)          -3.985054570000    16.128504080000   -34.697185720000    12.000000000000
      Gh(C)          -2.653426660000    16.199554760000   -36.891755610000    12.000000000000
      Gh(C)          -1.562884120000    12.830737570000   -34.967460920000    12.000000000000

  Running in c1 symmetry.

  Rotational constants: A =      0.04546  B =      0.00059  C =      0.00059 [cm^-1]
  Rotational constants: A =   1362.94252  B =     17.66263  C =     17.55470 [MHz]
  Nuclear repulsion =  164.086695994184396

  Charge       = 0
  Multiplicity = 1
  Electrons    = 36
  Nalpha       = 18
  Nbeta        = 18

  ==> Algorithm <==

  SCF Algorithm Type is DF.
  DIIS enabled.
  MOM disabled.
  Fractional occupation disabled.
  Guess Type is SAD.
  Energy threshold   = 1.00e-10
  Density threshold  = 1.00e-10
  Integral threshold = 1.00e-12

  ==> Primary Basis <==

  Basis Set: AUG-CC-PVDZ
    Blend: AUG-CC-PVDZ
    Number of shells: 130
    Number of basis functions: 302
    Number of Cartesian functions: 322
    Spherical Harmonics?: true
    Max angular momentum: 2

   => Loading Basis Set <=

    Name: (AUG-CC-PVDZ AUX)
    Role: JKFIT
    Keyword: DF_BASIS_SCF
    atoms 1-2, 10-11 entry N          line   212 file /theoryfs2/ds/csargent/miniconda3/envs/cle/share/psi4/basis/aug-cc-pvdz-jkfit.gbs
    atoms 3-6, 12-15 entry H          line    70 file /theoryfs2/ds/csargent/miniconda3/envs/cle/share/psi4/basis/aug-cc-pvdz-jkfit.gbs
    atoms 7-9, 16-18 entry C          line   154 file /theoryfs2/ds/csargent/miniconda3/envs/cle/share/psi4/basis/aug-cc-pvdz-jkfit.gbs

  ==> Integral Setup <==

  ==> DiskDFJK: Density-Fitted J/K Matrices <==

    J tasked:                  Yes
    K tasked:                  Yes
    wK tasked:                  No
    OpenMP threads:              6
    Integrals threads:           6
    Memory [MiB]:             5006
    Algorithm:                Core
    Integral Cache:           LOAD
    Schwarz Cutoff:          1E-12
    Fitting Condition:       1E-10

   => Auxiliary Basis Set <=

  Basis Set: (AUG-CC-PVDZ AUX)
    Blend: AUG-CC-PVDZ-JKFIT
    Number of shells: 376
    Number of basis functions: 1116
    Number of Cartesian functions: 1290
    Spherical Harmonics?: true
    Max angular momentum: 3

  Minimum eigenvalue in the overlap matrix is 2.1837063018E-05.
  Reciprocal condition number of the overlap matrix is 1.8394514153E-06.
    Using symmetric orthogonalization.

  ==> Pre-Iterations <==

  SCF Guess: Superposition of Atomic Densities via on-the-fly atomic UHF (no occupation information).

   -------------------------
    Irrep   Nso     Nmo
   -------------------------
     A        302     302
   -------------------------
    Total     302     302
   -------------------------

  ==> Iterations <==

                           Total Energy        Delta E     RMS |[F,P]|

   @DF-RHF iter SAD:  -224.55857169441637   -2.24559e+02   0.00000e+00
   @DF-RHF iter   1:  -224.69806464713446   -1.39493e-01   1.63067e-03 DIIS
   @DF-RHF iter   2:  -224.80532026555190   -1.07256e-01   9.27384e-04 DIIS
   @DF-RHF iter   3:  -224.84168816945385   -3.63679e-02   1.74019e-04 DIIS
   @DF-RHF iter   4:  -224.84337342152202   -1.68525e-03   7.98972e-05 DIIS
   @DF-RHF iter   5:  -224.84367500223442   -3.01581e-04   1.26452e-05 DIIS
   @DF-RHF iter   6:  -224.84369233926725   -1.73370e-05   5.61871e-06 DIIS
   @DF-RHF iter   7:  -224.84369542733683   -3.08807e-06   2.19503e-06 DIIS
   @DF-RHF iter   8:  -224.84369615925556   -7.31919e-07   7.77587e-07 DIIS
   @DF-RHF iter   9:  -224.84369627004887   -1.10793e-07   1.87961e-07 DIIS
   @DF-RHF iter  10:  -224.84369627558502   -5.53615e-09   7.33125e-08 DIIS
   @DF-RHF iter  11:  -224.84369627641107   -8.26049e-10   3.26918e-08 DIIS
   @DF-RHF iter  12:  -224.84369627656321   -1.52141e-10   9.70884e-09 DIIS
   @DF-RHF iter  13:  -224.84369627657685   -1.36424e-11   3.58840e-09 DIIS
   @DF-RHF iter  14:  -224.84369627657827   -1.42109e-12   1.58275e-09 DIIS
   @DF-RHF iter  15:  -224.84369627657850   -2.27374e-13   5.27556e-10 DIIS
   @DF-RHF iter  16:  -224.84369627657844    5.68434e-14   2.34517e-10 DIIS
   @DF-RHF iter  17:  -224.84369627657861   -1.70530e-13   4.71139e-11 DIIS
  Energy and wave function converged.


  ==> Post-Iterations <==

    Orbital Energies [Eh]
    ---------------------

    Doubly Occupied:

       1A    -15.637071     2A    -15.551216     3A    -11.300916
       4A    -11.263160     5A    -11.245653     6A     -1.352867
       7A     -1.169098     8A     -1.012098     9A     -0.824390
      10A     -0.803731    11A     -0.760666    12A     -0.610096
      13A     -0.603958    14A     -0.601922    15A     -0.570942
      16A     -0.435483    17A     -0.400464    18A     -0.320685

    Virtual:

      19A      0.021913    20A      0.025388    21A      0.039422
      22A      0.041580    23A      0.042970    24A      0.049997
      25A      0.061864    26A      0.066958    27A      0.075891
      28A      0.085537    29A      0.089096    30A      0.096891
      31A      0.101397    32A      0.120831    33A      0.123961
      34A      0.124432    35A      0.125577    36A      0.126231
      37A      0.126625    38A      0.133419    39A      0.133472
      40A      0.133773    41A      0.137474    42A      0.140942
      43A      0.156157    44A      0.156500    45A      0.158699
      46A      0.171989    47A      0.178189    48A      0.187224
      49A      0.191439    50A      0.207069    51A      0.208746
      52A      0.211559    53A      0.211912    54A      0.219665
      55A      0.220268    56A      0.221961    57A      0.232359
      58A      0.232427    59A      0.241408    60A      0.261605
      61A      0.267803    62A      0.271460    63A      0.277911
      64A      0.298749    65A      0.301746    66A      0.305811
      67A      0.314442    68A      0.318603    69A      0.338197
      70A      0.359509    71A      0.361488    72A      0.370745
      73A      0.374908    74A      0.379800    75A      0.388291
      76A      0.392794    77A      0.397097    78A      0.417031
      79A      0.426812    80A      0.429000    81A      0.434587
      82A      0.439773    83A      0.448356    84A      0.451459
      85A      0.452059    86A      0.466350    87A      0.467494
      88A      0.480406    89A      0.481229    90A      0.486283
      91A      0.488151    92A      0.516733    93A      0.519931
      94A      0.535312    95A      0.537572    96A      0.542506
      97A      0.551710    98A      0.555163    99A      0.556382
     100A      0.568280   101A      0.576474   102A      0.578709
     103A      0.586926   104A      0.594249   105A      0.598939
     106A      0.605875   107A      0.611400   108A      0.616080
     109A      0.617688   110A      0.636538   111A      0.639166
     112A      0.652504   113A      0.669282   114A      0.671337
     115A      0.677018   116A      0.678185   117A      0.683173
     118A      0.683874   119A      0.710590   120A      0.714698
     121A      0.725758   122A      0.735519   123A      0.741238
     124A      0.755481   125A      0.762698   126A      0.767400
     127A      0.790929   128A      0.793606   129A      0.797606
     130A      0.809747   131A      0.809869   132A      0.811802
     133A      0.822692   134A      0.836039   135A      0.859028
     136A      0.860398   137A      0.871425   138A      0.885765
     139A      0.885950   140A      0.889823   141A      0.909135
     142A      0.919048   143A      0.926318   144A      0.954351
     145A      0.968127   146A      0.976964   147A      0.991237
     148A      0.998360   149A      1.010706   150A      1.014850
     151A      1.017404   152A      1.030676   153A      1.058434
     154A      1.077353   155A      1.077992   156A      1.084552
     157A      1.103054   158A      1.115415   159A      1.126983
     160A      1.131831   161A      1.140497   162A      1.149565
     163A      1.167170   164A      1.170311   165A      1.173458
     166A      1.196954   167A      1.209966   168A      1.217445
     169A      1.260721   170A      1.277442   171A      1.290045
     172A      1.296415   173A      1.302539   174A      1.311966
     175A      1.317504   176A      1.346993   177A      1.383479
     178A      1.385028   179A      1.398145   180A      1.451143
     181A      1.494312   182A      1.503288   183A      1.515235
     184A      1.518410   185A      1.540745   186A      1.574127
     187A      1.574285   188A      1.596381   189A      1.652159
     190A      1.660352   191A      1.671505   192A      1.705286
     193A      1.724477   194A      1.782643   195A      1.799067
     196A      1.807063   197A      1.864950   198A      1.881477
     199A      1.924391   200A      1.964987   201A      2.022005
     202A      2.025429   203A      2.039151   204A      2.072981
     205A      2.100496   206A      2.107054   207A      2.118861
     208A      2.126759   209A      2.130848   210A      2.135965
     211A      2.148968   212A      2.168670   213A      2.178815
     214A      2.184635   215A      2.229196   216A      2.252248
     217A      2.267082   218A      2.275963   219A      2.300924
     220A      2.308176   221A      2.326654   222A      2.332072
     223A      2.376304   224A      2.405013   225A      2.412890
     226A      2.417758   227A      2.455268   228A      2.470327
     229A      2.493439   230A      2.496919   231A      2.514025
     232A      2.525364   233A      2.545014   234A      2.545345
     235A      2.576426   236A      2.585743   237A      2.599439
     238A      2.633765   239A      2.695763   240A      2.734093
     241A      2.747025   242A      2.767089   243A      2.789901
     244A      2.794149   245A      2.803444   246A      2.828471
     247A      2.837641   248A      2.867213   249A      2.895358
     250A      2.932893   251A      2.948998   252A      2.952738
     253A      2.980862   254A      3.043097   255A      3.051201
     256A      3.069910   257A      3.075801   258A      3.131478
     259A      3.159242   260A      3.182600   261A      3.199163
     262A      3.208795   263A      3.213040   264A      3.334816
     265A      3.340479   266A      3.354371   267A      3.354572
     268A      3.362541   269A      3.458274   270A      3.494113
     271A      3.518552   272A      3.569176   273A      3.608599
     274A      3.706860   275A      3.726362   276A      3.768294
     277A      3.778017   278A      3.797791   279A      3.857600
     280A      3.870367   281A      4.003538   282A      4.109022
     283A      4.212378   284A      4.636412   285A      4.638478
     286A      4.695653   287A      4.771445   288A      4.879714
     289A      5.021080   290A      5.254361   291A      5.372860
     292A      5.494520   293A      5.610053   294A      5.715921
     295A      5.883577   296A      6.089312   297A      6.197821
     298A     18.255188   299A     18.589758   300A     19.300147
     301A     25.311630   302A     25.452878

    Final Occupation by Irrep:
              A
    DOCC [    18 ]

  @DF-RHF Final Energy:  -224.84369627657861

   => Energetics <=

    Nuclear Repulsion Energy =            164.0866959941843959
    One-Electron Energy =                -628.9319562968017863
    Two-Electron Energy =                 240.0015640260387499
    Total Energy =                       -224.8436962765786120

Computation Completed


Properties will be evaluated at   0.000000,   0.000000,   0.000000 [a0]

Properties computed using the SCF density matrix

  Nuclear Dipole Moment: [e a0]
     X:  -102.4221      Y:  -129.0981      Z:   128.4908

  Electronic Dipole Moment: [e a0]
     X:   103.2259      Y:   129.2613      Z:  -129.8232

  Dipole Moment: [e a0]
     X:     0.8038      Y:     0.1633      Z:    -1.3324     Total:     1.5646

  Dipole Moment: [D]
     X:     2.0431      Y:     0.4150      Z:    -3.3867     Total:     3.9769


*** tstop() called on ds1 at Tue Sep 14 18:16:02 2021
Module time:
	user time   =      15.56 seconds =       0.26 minutes
	system time =       0.33 seconds =       0.01 minutes
	total time  =          4 seconds =       0.07 minutes
Total time:
	user time   =      38.06 seconds =       0.63 minutes
	system time =       0.86 seconds =       0.01 minutes
	total time  =          9 seconds =       0.15 minutes

  //>>>>>>>>>>>>>>>>>>>>>>>>>>>>>>>>>>>//
  //            Monomer B HF           //
  //<<<<<<<<<<<<<<<<<<<<<<<<<<<<<<<<<<<//


*** tstart() called on ds1
*** at Tue Sep 14 18:16:02 2021

   => Loading Basis Set <=

    Name: AUG-CC-PVDZ
    Role: ORBITAL
    Keyword: BASIS
    atoms 1-2, 10-11 entry N          line   218 file /theoryfs2/ds/csargent/miniconda3/envs/cle/share/psi4/basis/aug-cc-pvdz.gbs
    atoms 3-6, 12-15 entry H          line    40 file /theoryfs2/ds/csargent/miniconda3/envs/cle/share/psi4/basis/aug-cc-pvdz.gbs
    atoms 7-9, 16-18 entry C          line   182 file /theoryfs2/ds/csargent/miniconda3/envs/cle/share/psi4/basis/aug-cc-pvdz.gbs


         ---------------------------------------------------------
                                   SCF
               by Justin Turney, Rob Parrish, Andy Simmonett
                          and Daniel G. A. Smith
                              RHF Reference
                        6 Threads,   6675 MiB Core
         ---------------------------------------------------------

  ==> Geometry <==

    Molecular point group: c1
    Full point group: C1

    Geometry (in Bohr), charge = 0, multiplicity = 1:

       Center              X                  Y                   Z               Mass
    ------------   -----------------  -----------------  -----------------  -----------------
      Gh(N)          -4.293096210000    -3.068374310000     5.305162310000    14.003074004430
      Gh(N)          -2.158473710000    -2.926272960000     1.720374480000    14.003074004430
      Gh(H)          -0.025455870000    -6.359035750000     2.220464520000     1.007825032230
      Gh(H)          -2.685669680000    -6.532602410000     6.614459540000     1.007825032230
      Gh(H)          -4.743884230000    -0.006090060000     2.756159680000     1.007825032230
      Gh(H)          -1.410455400000    -2.247231470000     0.000000000000     1.007825032230
      Gh(C)          -1.437379910000    -5.075048480000     2.940658910000    12.000000000000
      Gh(C)          -2.769007820000    -5.146099160000     5.135228800000    12.000000000000
      Gh(C)          -3.859550360000    -1.777281980000     3.210934110000    12.000000000000
         N           -1.129338270000    14.121829910000   -37.061689120000    14.003074004430
         N           -3.263960770000    13.979728550000   -33.476901290000    14.003074004430
         H           -5.396978610000    17.412491340000   -33.976991330000     1.007825032230
         H           -2.736764800000    17.586058000000   -38.370986350000     1.007825032230
         H           -0.678550250000    11.059545650000   -34.512686490000     1.007825032230
         H           -4.011979070000    13.300687060000   -31.756526810000     1.007825032230
         C           -3.985054570000    16.128504080000   -34.697185720000    12.000000000000
         C           -2.653426660000    16.199554760000   -36.891755610000    12.000000000000
         C           -1.562884120000    12.830737570000   -34.967460920000    12.000000000000

  Running in c1 symmetry.

  Rotational constants: A =      0.04546  B =      0.00059  C =      0.00059 [cm^-1]
  Rotational constants: A =   1362.94252  B =     17.66263  C =     17.55470 [MHz]
  Nuclear repulsion =  164.086695882942792

  Charge       = 0
  Multiplicity = 1
  Electrons    = 36
  Nalpha       = 18
  Nbeta        = 18

  ==> Algorithm <==

  SCF Algorithm Type is DF.
  DIIS enabled.
  MOM disabled.
  Fractional occupation disabled.
  Guess Type is SAD.
  Energy threshold   = 1.00e-10
  Density threshold  = 1.00e-10
  Integral threshold = 1.00e-12

  ==> Primary Basis <==

  Basis Set: AUG-CC-PVDZ
    Blend: AUG-CC-PVDZ
    Number of shells: 130
    Number of basis functions: 302
    Number of Cartesian functions: 322
    Spherical Harmonics?: true
    Max angular momentum: 2

   => Loading Basis Set <=

    Name: (AUG-CC-PVDZ AUX)
    Role: JKFIT
    Keyword: DF_BASIS_SCF
    atoms 1-2, 10-11 entry N          line   212 file /theoryfs2/ds/csargent/miniconda3/envs/cle/share/psi4/basis/aug-cc-pvdz-jkfit.gbs
    atoms 3-6, 12-15 entry H          line    70 file /theoryfs2/ds/csargent/miniconda3/envs/cle/share/psi4/basis/aug-cc-pvdz-jkfit.gbs
    atoms 7-9, 16-18 entry C          line   154 file /theoryfs2/ds/csargent/miniconda3/envs/cle/share/psi4/basis/aug-cc-pvdz-jkfit.gbs

  ==> Integral Setup <==

  ==> DiskDFJK: Density-Fitted J/K Matrices <==

    J tasked:                  Yes
    K tasked:                  Yes
    wK tasked:                  No
    OpenMP threads:              6
    Integrals threads:           6
    Memory [MiB]:             5006
    Algorithm:                Core
    Integral Cache:           LOAD
    Schwarz Cutoff:          1E-12
    Fitting Condition:       1E-10

   => Auxiliary Basis Set <=

  Basis Set: (AUG-CC-PVDZ AUX)
    Blend: AUG-CC-PVDZ-JKFIT
    Number of shells: 376
    Number of basis functions: 1116
    Number of Cartesian functions: 1290
    Spherical Harmonics?: true
    Max angular momentum: 3

  Minimum eigenvalue in the overlap matrix is 2.1837063018E-05.
  Reciprocal condition number of the overlap matrix is 1.8394514153E-06.
    Using symmetric orthogonalization.

  ==> Pre-Iterations <==

  SCF Guess: Superposition of Atomic Densities via on-the-fly atomic UHF (no occupation information).

   -------------------------
    Irrep   Nso     Nmo
   -------------------------
     A        302     302
   -------------------------
    Total     302     302
   -------------------------

  ==> Iterations <==

                           Total Energy        Delta E     RMS |[F,P]|

   @DF-RHF iter SAD:  -224.55857168432169   -2.24559e+02   0.00000e+00
   @DF-RHF iter   1:  -224.69806464887316   -1.39493e-01   1.63067e-03 DIIS
   @DF-RHF iter   2:  -224.80532026687106   -1.07256e-01   9.27384e-04 DIIS
   @DF-RHF iter   3:  -224.84168817079490   -3.63679e-02   1.74019e-04 DIIS
   @DF-RHF iter   4:  -224.84337342287557   -1.68525e-03   7.98972e-05 DIIS
   @DF-RHF iter   5:  -224.84367500358940   -3.01581e-04   1.26452e-05 DIIS
   @DF-RHF iter   6:  -224.84369234062211   -1.73370e-05   5.61871e-06 DIIS
   @DF-RHF iter   7:  -224.84369542869192   -3.08807e-06   2.19503e-06 DIIS
   @DF-RHF iter   8:  -224.84369616061025   -7.31918e-07   7.77587e-07 DIIS
   @DF-RHF iter   9:  -224.84369627140433   -1.10794e-07   1.87961e-07 DIIS
   @DF-RHF iter  10:  -224.84369627694005   -5.53572e-09   7.33125e-08 DIIS
   @DF-RHF iter  11:  -224.84369627776601   -8.25963e-10   3.26918e-08 DIIS
   @DF-RHF iter  12:  -224.84369627791801   -1.51999e-10   9.70884e-09 DIIS
   @DF-RHF iter  13:  -224.84369627793126   -1.32445e-11   3.58840e-09 DIIS
   @DF-RHF iter  14:  -224.84369627793305   -1.79057e-12   1.58275e-09 DIIS
   @DF-RHF iter  15:  -224.84369627793336   -3.12639e-13   5.27556e-10 DIIS
   @DF-RHF iter  16:  -224.84369627793365   -2.84217e-13   2.34517e-10 DIIS
   @DF-RHF iter  17:  -224.84369627793313    5.11591e-13   4.71139e-11 DIIS
  Energy and wave function converged.


  ==> Post-Iterations <==

    Orbital Energies [Eh]
    ---------------------

    Doubly Occupied:

       1A    -15.637071     2A    -15.551216     3A    -11.300916
       4A    -11.263160     5A    -11.245653     6A     -1.352867
       7A     -1.169098     8A     -1.012098     9A     -0.824390
      10A     -0.803731    11A     -0.760666    12A     -0.610096
      13A     -0.603958    14A     -0.601922    15A     -0.570942
      16A     -0.435483    17A     -0.400464    18A     -0.320685

    Virtual:

      19A      0.021913    20A      0.025388    21A      0.039422
      22A      0.041580    23A      0.042970    24A      0.049997
      25A      0.061864    26A      0.066958    27A      0.075891
      28A      0.085537    29A      0.089096    30A      0.096891
      31A      0.101397    32A      0.120831    33A      0.123961
      34A      0.124432    35A      0.125577    36A      0.126231
      37A      0.126625    38A      0.133419    39A      0.133472
      40A      0.133773    41A      0.137474    42A      0.140942
      43A      0.156157    44A      0.156500    45A      0.158699
      46A      0.171988    47A      0.178189    48A      0.187224
      49A      0.191439    50A      0.207069    51A      0.208746
      52A      0.211559    53A      0.211912    54A      0.219665
      55A      0.220268    56A      0.221961    57A      0.232359
      58A      0.232427    59A      0.241408    60A      0.261605
      61A      0.267803    62A      0.271460    63A      0.277911
      64A      0.298749    65A      0.301746    66A      0.305811
      67A      0.314442    68A      0.318603    69A      0.338197
      70A      0.359509    71A      0.361488    72A      0.370745
      73A      0.374908    74A      0.379800    75A      0.388291
      76A      0.392794    77A      0.397097    78A      0.417031
      79A      0.426812    80A      0.429000    81A      0.434587
      82A      0.439773    83A      0.448356    84A      0.451459
      85A      0.452059    86A      0.466350    87A      0.467494
      88A      0.480406    89A      0.481229    90A      0.486283
      91A      0.488151    92A      0.516733    93A      0.519931
      94A      0.535312    95A      0.537572    96A      0.542506
      97A      0.551710    98A      0.555163    99A      0.556382
     100A      0.568280   101A      0.576474   102A      0.578709
     103A      0.586926   104A      0.594249   105A      0.598939
     106A      0.605875   107A      0.611400   108A      0.616080
     109A      0.617688   110A      0.636538   111A      0.639166
     112A      0.652504   113A      0.669281   114A      0.671337
     115A      0.677018   116A      0.678185   117A      0.683173
     118A      0.683874   119A      0.710590   120A      0.714698
     121A      0.725758   122A      0.735519   123A      0.741238
     124A      0.755481   125A      0.762698   126A      0.767400
     127A      0.790929   128A      0.793606   129A      0.797606
     130A      0.809747   131A      0.809869   132A      0.811802
     133A      0.822692   134A      0.836039   135A      0.859028
     136A      0.860398   137A      0.871425   138A      0.885765
     139A      0.885950   140A      0.889823   141A      0.909135
     142A      0.919048   143A      0.926318   144A      0.954351
     145A      0.968127   146A      0.976964   147A      0.991237
     148A      0.998360   149A      1.010706   150A      1.014850
     151A      1.017404   152A      1.030676   153A      1.058434
     154A      1.077353   155A      1.077992   156A      1.084552
     157A      1.103054   158A      1.115415   159A      1.126983
     160A      1.131831   161A      1.140497   162A      1.149565
     163A      1.167170   164A      1.170311   165A      1.173458
     166A      1.196954   167A      1.209966   168A      1.217445
     169A      1.260721   170A      1.277442   171A      1.290045
     172A      1.296415   173A      1.302539   174A      1.311966
     175A      1.317504   176A      1.346993   177A      1.383479
     178A      1.385028   179A      1.398145   180A      1.451143
     181A      1.494312   182A      1.503288   183A      1.515235
     184A      1.518410   185A      1.540745   186A      1.574127
     187A      1.574285   188A      1.596381   189A      1.652159
     190A      1.660352   191A      1.671505   192A      1.705286
     193A      1.724477   194A      1.782643   195A      1.799067
     196A      1.807063   197A      1.864950   198A      1.881477
     199A      1.924391   200A      1.964987   201A      2.022005
     202A      2.025429   203A      2.039151   204A      2.072981
     205A      2.100496   206A      2.107054   207A      2.118861
     208A      2.126759   209A      2.130848   210A      2.135965
     211A      2.148968   212A      2.168670   213A      2.178815
     214A      2.184635   215A      2.229196   216A      2.252248
     217A      2.267082   218A      2.275963   219A      2.300924
     220A      2.308176   221A      2.326654   222A      2.332072
     223A      2.376304   224A      2.405013   225A      2.412890
     226A      2.417758   227A      2.455268   228A      2.470327
     229A      2.493439   230A      2.496919   231A      2.514025
     232A      2.525364   233A      2.545014   234A      2.545345
     235A      2.576426   236A      2.585743   237A      2.599439
     238A      2.633765   239A      2.695763   240A      2.734093
     241A      2.747025   242A      2.767089   243A      2.789901
     244A      2.794149   245A      2.803444   246A      2.828471
     247A      2.837641   248A      2.867213   249A      2.895358
     250A      2.932893   251A      2.948998   252A      2.952738
     253A      2.980862   254A      3.043097   255A      3.051201
     256A      3.069910   257A      3.075801   258A      3.131478
     259A      3.159242   260A      3.182600   261A      3.199163
     262A      3.208795   263A      3.213040   264A      3.334816
     265A      3.340479   266A      3.354371   267A      3.354572
     268A      3.362541   269A      3.458274   270A      3.494113
     271A      3.518552   272A      3.569176   273A      3.608599
     274A      3.706860   275A      3.726362   276A      3.768294
     277A      3.778017   278A      3.797791   279A      3.857600
     280A      3.870367   281A      4.003538   282A      4.109022
     283A      4.212378   284A      4.636412   285A      4.638478
     286A      4.695653   287A      4.771445   288A      4.879714
     289A      5.021080   290A      5.254361   291A      5.372860
     292A      5.494520   293A      5.610053   294A      5.715921
     295A      5.883577   296A      6.089312   297A      6.197821
     298A     18.255188   299A     18.589758   300A     19.300147
     301A     25.311630   302A     25.452878

    Final Occupation by Irrep:
              A
    DOCC [    18 ]

  @DF-RHF Final Energy:  -224.84369627793313

   => Energetics <=

    Nuclear Repulsion Energy =            164.0866958829427915
    One-Electron Energy =                -628.9319560777778406
    Two-Electron Energy =                 240.0015639169019437
    Total Energy =                       -224.8436962779331338

Computation Completed


Properties will be evaluated at   0.000000,   0.000000,   0.000000 [a0]

Properties computed using the SCF density matrix

  Nuclear Dipole Moment: [e a0]
     X:   -92.7856      Y:   527.0225      Z: -1271.7257

  Electronic Dipole Moment: [e a0]
     X:    91.9818      Y:  -527.1857      Z:  1273.0582

  Dipole Moment: [e a0]
     X:    -0.8038      Y:    -0.1633      Z:     1.3324     Total:     1.5646

  Dipole Moment: [D]
     X:    -2.0431      Y:    -0.4150      Z:     3.3867     Total:     3.9769


*** tstop() called on ds1 at Tue Sep 14 18:16:05 2021
Module time:
	user time   =      15.67 seconds =       0.26 minutes
	system time =       0.32 seconds =       0.01 minutes
	total time  =          3 seconds =       0.05 minutes
Total time:
	user time   =      53.90 seconds =       0.90 minutes
	system time =       1.19 seconds =       0.02 minutes
	total time  =         12 seconds =       0.20 minutes
  Constructing Basis Sets for SAPT...

   => Loading Basis Set <=

    Name: (AUG-CC-PVDZ AUX)
    Role: RIFIT
    Keyword: DF_BASIS_SAPT
    atoms 1-2, 10-11 entry N          line   158 file /theoryfs2/ds/csargent/miniconda3/envs/cle/share/psi4/basis/aug-cc-pvdz-ri.gbs
    atoms 3-6, 12-15 entry H          line    30 file /theoryfs2/ds/csargent/miniconda3/envs/cle/share/psi4/basis/aug-cc-pvdz-ri.gbs
    atoms 7-9, 16-18 entry C          line   112 file /theoryfs2/ds/csargent/miniconda3/envs/cle/share/psi4/basis/aug-cc-pvdz-ri.gbs


  //>>>>>>>>>>>>>>>>>>>>>>>>>>>>>>>>>>>//
  //               SAPT0               //
  //<<<<<<<<<<<<<<<<<<<<<<<<<<<<<<<<<<<//


*** tstart() called on ds1
*** at Tue Sep 14 18:16:05 2021

        SAPT0
    Ed Hohenstein
     6 June 2009

      Orbital Information
  --------------------------
    NSO        =       302
    NMO        =       302
    NRI        =       904
    NOCC A     =        18
    NOCC B     =        18
    FOCC A     =         5
    FOCC B     =         5
    NVIR A     =       284
    NVIR B     =       284

    Elst10,r            =     0.000043785659 [Eh]
    Exch10              =    -0.000000000000 [Eh]
    Exch10 (S^2)        =    -0.000000000000 [Eh]

    Iter     Energy [mEh]          dE [mEh]         Residual      Time [s]
       1      -0.00003564       0.000035643       0.061868860             0
       2      -0.00003352      -0.000002128       0.016596416             0
       3      -0.00003690       0.000003389       0.006255441             1
       4      -0.00003734       0.000000432       0.001987020             1
       5      -0.00003728      -0.000000055       0.001056585             1
       6      -0.00003722      -0.000000057       0.000345507             1
       7      -0.00003723       0.000000009       0.000121470             1
       8      -0.00003724       0.000000006       0.000043245             1
       9      -0.00003724      -0.000000000       0.000014902             1
      10      -0.00003724      -0.000000001       0.000003213             1
      11      -0.00003724       0.000000000       0.000001144             2
      12      -0.00003724       0.000000000       0.000000422             2

    CHF Iterations converged


    Iter     Energy [mEh]          dE [mEh]         Residual      Time [s]
       1      -0.00003564       0.000035643       0.061868859             0
       2      -0.00003352      -0.000002128       0.016596416             0
       3      -0.00003690       0.000003389       0.006255441             0
       4      -0.00003734       0.000000432       0.001987020             0
       5      -0.00003728      -0.000000055       0.001056585             0
       6      -0.00003722      -0.000000057       0.000345507             0
       7      -0.00003723       0.000000009       0.000121470             1
       8      -0.00003724       0.000000006       0.000043245             1
       9      -0.00003724      -0.000000000       0.000014902             1
      10      -0.00003724      -0.000000001       0.000003213             1
      11      -0.00003724       0.000000000       0.000001144             1
      12      -0.00003724       0.000000000       0.000000422             1

    CHF Iterations converged

    Ind20,r (A<-B)      =    -0.000000037237 [Eh]
    Ind20,r (B<-A)      =    -0.000000037237 [Eh]
    Ind20,r             =    -0.000000074473 [Eh]
    Exch-Ind20,r (A<-B) =     0.000000000000 [Eh]
    Exch-Ind20,r (B<-A) =     0.000000000000 [Eh]
    Exch-Ind20,r        =     0.000000000000 [Eh]
    Disp20              =    -0.000000221467 [Eh]
    Disp20 (SS)         =    -0.000000110734 [Eh]
    Disp20 (OS)         =    -0.000000110734 [Eh]
    Exch-Disp20         =     0.000000000000 [Eh]
    Exch-Disp20 (SS)    =     0.000000000000 [Eh]
    Exch-Disp20 (OS)    =     0.000000000000 [Eh]

    SAPT Results
  --------------------------------------------------------------------------------------------------------
    Electrostatics                  0.04378566 [mEh]       0.02747592 [kcal/mol]       0.11495923 [kJ/mol]
      Elst10,r                      0.04378566 [mEh]       0.02747592 [kcal/mol]       0.11495923 [kJ/mol]

    Exchange                       -0.00000000 [mEh]      -0.00000000 [kcal/mol]      -0.00000000 [kJ/mol]
      Exch10                       -0.00000000 [mEh]      -0.00000000 [kcal/mol]      -0.00000000 [kJ/mol]
      Exch10(S^2)                  -0.00000000 [mEh]      -0.00000000 [kcal/mol]      -0.00000000 [kJ/mol]

    Induction                      -0.00007071 [mEh]      -0.00004437 [kcal/mol]      -0.00018564 [kJ/mol]
      Ind20,r                      -0.00007447 [mEh]      -0.00004673 [kcal/mol]      -0.00019553 [kJ/mol]
      Exch-Ind20,r                  0.00000000 [mEh]       0.00000000 [kcal/mol]       0.00000000 [kJ/mol]
      delta HF,r (2)                0.00000377 [mEh]       0.00000236 [kcal/mol]       0.00000989 [kJ/mol]

    Dispersion                     -0.00022147 [mEh]      -0.00013897 [kcal/mol]      -0.00058146 [kJ/mol]
      Disp20                       -0.00022147 [mEh]      -0.00013897 [kcal/mol]      -0.00058146 [kJ/mol]
      Exch-Disp20                   0.00000000 [mEh]       0.00000000 [kcal/mol]       0.00000000 [kJ/mol]
      Disp20 (SS)                  -0.00011073 [mEh]      -0.00006949 [kcal/mol]      -0.00029073 [kJ/mol]
      Disp20 (OS)                  -0.00011073 [mEh]      -0.00006949 [kcal/mol]      -0.00029073 [kJ/mol]
      Exch-Disp20 (SS)              0.00000000 [mEh]       0.00000000 [kcal/mol]       0.00000000 [kJ/mol]
      Exch-Disp20 (OS)              0.00000000 [mEh]       0.00000000 [kcal/mol]       0.00000000 [kJ/mol]

  Total HF                          0.04371495 [mEh]       0.02743155 [kcal/mol]       0.11477359 [kJ/mol]
  Total SAPT0                       0.04349348 [mEh]       0.02729257 [kcal/mol]       0.11419213 [kJ/mol]

  Special recipe for scaled SAPT0 (see Manual):
    Electrostatics sSAPT0           0.04378566 [mEh]       0.02747592 [kcal/mol]       0.11495923 [kJ/mol]
    Exchange sSAPT0                -0.00000000 [mEh]      -0.00000000 [kcal/mol]      -0.00000000 [kJ/mol]
    Induction sSAPT0               -0.00007071 [mEh]      -0.00004437 [kcal/mol]      -0.00018564 [kJ/mol]
    Dispersion sSAPT0              -0.00022147 [mEh]      -0.00013897 [kcal/mol]      -0.00058146 [kJ/mol]
  Total sSAPT0                      0.04349348 [mEh]       0.02729257 [kcal/mol]       0.11419213 [kJ/mol]
  --------------------------------------------------------------------------------------------------------

*** tstop() called on ds1 at Tue Sep 14 18:16:15 2021
Module time:
	user time   =      45.09 seconds =       0.75 minutes
	system time =       3.94 seconds =       0.07 minutes
	total time  =         10 seconds =       0.17 minutes
Total time:
	user time   =     100.02 seconds =       1.67 minutes
	system time =       5.16 seconds =       0.09 minutes
	total time  =         22 seconds =       0.37 minutes


Warning! sapt0 does not have an associated derived wavefunction.The returned wavefunction is the dimer SCF wavefunction.


    Psi4 stopped on: Tuesday, 14 September 2021 06:16PM
    Psi4 wall time for execution: 0:00:21.52

*** Psi4 exiting successfully. Buy a developer a beer!
