Generated by Psi4
     FORCE                           RHF                      DEF2-SVP
Number of atoms                            I                9
Charge                                     I                0
Multiplicity                               I                1
Number of electrons                        I               36
Number of alpha electrons                  I               18
Number of beta electrons                   I               18
Number of basis functions                  I               90
Number of independent functions            I               90
Atomic numbers                             I   N=           9
           7           7           6           6           6           1
           1           1           1
Nuclear charges                            R   N=           9
  7.00000000e+00  7.00000000e+00  6.00000000e+00  6.00000000e+00  6.00000000e+00
  1.00000000e+00  1.00000000e+00  1.00000000e+00  1.00000000e+00
Current cartesian coordinates              R   N=          27
 -9.75425677e-03 -2.12323275e+00  0.00000000e+00  1.33944677e+00  1.82613448e+00
  0.00000000e+00 -2.13201801e+00 -6.38266773e-01  0.00000000e+00  2.02259524e+00
 -5.50845850e-01  0.00000000e+00 -1.24212894e+00  1.80207562e+00  0.00000000e+00
  3.14571463e-02 -4.03321291e+00  0.00000000e+00 -4.02991821e+00 -1.42454664e+00
  0.00000000e+00  3.95931247e+00 -1.25493338e+00  0.00000000e+00 -2.34337014e+00
  3.54223497e+00  0.00000000e+00
Integer atomic weights                     I   N=           9
          14          14          12          12          12           1
           1           1           1
Real atomic weights                        R   N=           9
  1.40030740e+01  1.40030740e+01  1.20000000e+01  1.20000000e+01  1.20000000e+01
  1.00782503e+00  1.00782503e+00  1.00782503e+00  1.00782503e+00
Number of primitive shells                 I               80
Number of contracted shells                I               42
Pure/Cartesian d shells                    I                0
Pure/Cartesian f shells                    I                0
Highest angular momentum                   I                2
Largest degree of contraction              I                5
Shell types                                I   N=          42
           0           0           0           1           1          -2
           0           0           0           1           1          -2
           0           0           0           1           1          -2
           0           0           0           1           1          -2
           0           0           0           1           1          -2
           0           0           1           0           0           1
           0           0           1           0           0           1
Number of primitives per shell             I   N=          42
           5           1           1           3           1           1
           5           1           1           3           1           1
           5           1           1           3           1           1
           5           1           1           3           1           1
           5           1           1           3           1           1
           3           1           1           3           1           1
           3           1           1           3           1           1
Shell to atom map                          I   N=          42
           1           1           1           1           1           1
           2           2           2           2           2           2
           3           3           3           3           3           3
           4           4           4           4           4           4
           5           5           5           5           5           5
           6           6           6           7           7           7
           8           8           8           9           9           9
Primitive exponents                        R   N=          80
  1.71284159e+03  2.57648127e+02  5.84582459e+01  1.61983679e+01  5.00526008e+00
  5.87318566e-01  1.87645923e-01  1.35714702e+01  2.92573729e+00  7.99277508e-01
  2.19543480e-01  1.00000000e+00  1.71284159e+03  2.57648127e+02  5.84582459e+01
  1.61983679e+01  5.00526008e+00  5.87318566e-01  1.87645923e-01  1.35714702e+01
  2.92573729e+00  7.99277508e-01  2.19543480e-01  1.00000000e+00  1.23840169e+03
  1.86290050e+02  4.22511763e+01  1.16765579e+01  3.59305065e+00  4.02451474e-01
  1.30901827e-01  9.46809706e+00  2.01035451e+00  5.47710047e-01  1.52686138e-01
  8.00000000e-01  1.23840169e+03  1.86290050e+02  4.22511763e+01  1.16765579e+01
  3.59305065e+00  4.02451474e-01  1.30901827e-01  9.46809706e+00  2.01035451e+00
  5.47710047e-01  1.52686138e-01  8.00000000e-01  1.23840169e+03  1.86290050e+02
  4.22511763e+01  1.16765579e+01  3.59305065e+00  4.02451474e-01  1.30901827e-01
  9.46809706e+00  2.01035451e+00  5.47710047e-01  1.52686138e-01  8.00000000e-01
  1.30107010e+01  1.96225720e+00  4.44537960e-01  1.21949620e-01  8.00000000e-01
  1.30107010e+01  1.96225720e+00  4.44537960e-01  1.21949620e-01  8.00000000e-01
  1.30107010e+01  1.96225720e+00  4.44537960e-01  1.21949620e-01  8.00000000e-01
  1.30107010e+01  1.96225720e+00  4.44537960e-01  1.21949620e-01  8.00000000e-01
Contraction coefficients                   R   N=          80
 -5.44779958e-03 -4.06271746e-02 -1.81119623e-01 -4.68439756e-01 -4.46168463e-01
  1.00000000e+00  1.00000000e+00 -5.88481170e-02 -3.20246248e-01 -7.53282265e-01
  1.00000000e+00  1.00000000e+00 -5.44779958e-03 -4.06271746e-02 -1.81119623e-01
 -4.68439756e-01 -4.46168463e-01  1.00000000e+00  1.00000000e+00 -5.88481170e-02
 -3.20246248e-01 -7.53282265e-01  1.00000000e+00  1.00000000e+00  5.51736505e-03
  4.10888286e-02  1.82253821e-01  4.68284594e-01  4.45758173e-01  1.00000000e+00
  1.00000000e+00  5.68883320e-02  3.12940593e-01  7.60650165e-01  1.00000000e+00
  1.00000000e+00  5.51736505e-03  4.10888286e-02  1.82253821e-01  4.68284594e-01
  4.45758173e-01  1.00000000e+00  1.00000000e+00  5.68883320e-02  3.12940593e-01
  7.60650165e-01  1.00000000e+00  1.00000000e+00  5.51736505e-03  4.10888286e-02
  1.82253821e-01  4.68284594e-01  4.45758173e-01  1.00000000e+00  1.00000000e+00
  5.68883320e-02  3.12940593e-01  7.60650165e-01  1.00000000e+00  1.00000000e+00
  3.34854848e-02  2.34721871e-01  8.13770285e-01  1.00000000e+00  1.00000000e+00
  3.34854848e-02  2.34721871e-01  8.13770285e-01  1.00000000e+00  1.00000000e+00
  3.34854848e-02  2.34721871e-01  8.13770285e-01  1.00000000e+00  1.00000000e+00
  3.34854848e-02  2.34721871e-01  8.13770285e-01  1.00000000e+00  1.00000000e+00
Coordinates of each shell                  R   N=         126
 -9.75425677e-03 -2.12323275e+00  0.00000000e+00 -9.75425677e-03 -2.12323275e+00
  0.00000000e+00 -9.75425677e-03 -2.12323275e+00  0.00000000e+00 -9.75425677e-03
 -2.12323275e+00  0.00000000e+00 -9.75425677e-03 -2.12323275e+00  0.00000000e+00
 -9.75425677e-03 -2.12323275e+00  0.00000000e+00  1.33944677e+00  1.82613448e+00
  0.00000000e+00  1.33944677e+00  1.82613448e+00  0.00000000e+00  1.33944677e+00
  1.82613448e+00  0.00000000e+00  1.33944677e+00  1.82613448e+00  0.00000000e+00
  1.33944677e+00  1.82613448e+00  0.00000000e+00  1.33944677e+00  1.82613448e+00
  0.00000000e+00 -2.13201801e+00 -6.38266773e-01  0.00000000e+00 -2.13201801e+00
 -6.38266773e-01  0.00000000e+00 -2.13201801e+00 -6.38266773e-01  0.00000000e+00
 -2.13201801e+00 -6.38266773e-01  0.00000000e+00 -2.13201801e+00 -6.38266773e-01
  0.00000000e+00 -2.13201801e+00 -6.38266773e-01  0.00000000e+00  2.02259524e+00
 -5.50845850e-01  0.00000000e+00  2.02259524e+00 -5.50845850e-01  0.00000000e+00
  2.02259524e+00 -5.50845850e-01  0.00000000e+00  2.02259524e+00 -5.50845850e-01
  0.00000000e+00  2.02259524e+00 -5.50845850e-01  0.00000000e+00  2.02259524e+00
 -5.50845850e-01  0.00000000e+00 -1.24212894e+00  1.80207562e+00  0.00000000e+00
 -1.24212894e+00  1.80207562e+00  0.00000000e+00 -1.24212894e+00  1.80207562e+00
  0.00000000e+00 -1.24212894e+00  1.80207562e+00  0.00000000e+00 -1.24212894e+00
  1.80207562e+00  0.00000000e+00 -1.24212894e+00  1.80207562e+00  0.00000000e+00
  3.14571463e-02 -4.03321291e+00  0.00000000e+00  3.14571463e-02 -4.03321291e+00
  0.00000000e+00  3.14571463e-02 -4.03321291e+00  0.00000000e+00 -4.02991821e+00
 -1.42454664e+00  0.00000000e+00 -4.02991821e+00 -1.42454664e+00  0.00000000e+00
 -4.02991821e+00 -1.42454664e+00  0.00000000e+00  3.95931247e+00 -1.25493338e+00
  0.00000000e+00  3.95931247e+00 -1.25493338e+00  0.00000000e+00  3.95931247e+00
 -1.25493338e+00  0.00000000e+00 -2.34337014e+00  3.54223497e+00  0.00000000e+00
 -2.34337014e+00  3.54223497e+00  0.00000000e+00 -2.34337014e+00  3.54223497e+00
  0.00000000e+00
Total Energy                               R     -2.257971275492079e+02
Alpha Orbital Energies                     R   N=          90
 -1.44537956e+01 -1.43646162e+01 -1.02824700e+01 -1.02612603e+01 -1.02410543e+01
 -1.04059515e+00 -8.88683807e-01 -7.58012000e-01 -6.31860778e-01 -6.05597770e-01
 -5.75321579e-01 -4.55247630e-01 -4.52099855e-01 -4.49767663e-01 -4.17268994e-01
 -2.98571477e-01 -2.77069863e-01 -2.42829353e-01  3.23998398e-02  5.74815195e-02
  7.56415008e-02  1.14639799e-01  1.21223829e-01  1.41694680e-01  2.19077922e-01
  2.35755816e-01  2.62825882e-01  3.21901758e-01  3.68037773e-01  4.11633022e-01
  4.22401370e-01  4.90748919e-01  4.96632026e-01  5.40331574e-01  5.45690648e-01
  5.74111032e-01  5.91685413e-01  6.34620413e-01  6.54745727e-01  7.09075751e-01
  7.15691865e-01  7.52680217e-01  7.84324085e-01  8.09033230e-01  8.45547760e-01
  8.69296395e-01  8.98715845e-01  9.73080818e-01  1.03141917e+00  1.10585935e+00
  1.17573236e+00  1.20359067e+00  1.22025023e+00  1.28912156e+00  1.33815530e+00
  1.35575575e+00  1.38307694e+00  1.53541564e+00  1.62489391e+00  1.65944718e+00
  1.69712997e+00  1.75233480e+00  1.76042458e+00  1.82941434e+00  1.91243016e+00
  1.91502822e+00  1.92998263e+00  1.98088668e+00  1.98958582e+00  2.04641756e+00
  2.09276103e+00  2.16370338e+00  2.23990477e+00  2.38500219e+00  2.39544836e+00
  2.48395212e+00  2.49923542e+00  2.51228390e+00  2.68608699e+00  2.73760961e+00
  2.75321484e+00  2.80381367e+00  2.82246818e+00  2.88417636e+00  2.91809130e+00
  2.98784754e+00  3.13031160e+00  3.37397314e+00  3.42181169e+00  3.63614102e+00
Alpha MO coefficients                      R   N=        8100
  9.88391399e-01 -4.64604388e-02  4.18649418e-02  3.16339219e-05 -8.37815856e-05
  0.00000000e+00 -5.59690777e-04  1.04225397e-02  0.00000000e+00  1.46118138e-03
  0.00000000e+00  0.00000000e+00  1.40487355e-03  4.19852238e-06 -9.99727956e-05
  9.12642704e-04 -2.57777578e-03 -5.00849303e-05  2.17402489e-04  0.00000000e+00
  9.56932759e-04  5.72105482e-05  0.00000000e+00  2.38788620e-04  0.00000000e+00
  0.00000000e+00 -1.38661341e-04 -1.11376855e-04 -2.71843221e-04 -1.29000667e-04
 -2.06643230e-02  7.34205781e-04 -6.04064251e-04  0.00000000e+00 -1.05713514e-02
 -1.09874592e-03  0.00000000e+00 -6.75320915e-04  0.00000000e+00  0.00000000e+00
  5.10268534e-04 -1.52542283e-03 -2.81900002e-04 -1.85631439e-04 -1.23130293e-02
 -7.08754028e-04 -6.01439941e-04  0.00000000e+00  6.94109474e-03  2.32910630e-03
  0.00000000e+00 -7.60493163e-04  0.00000000e+00  0.00000000e+00  2.83482331e-04
  1.62804834e-03  4.54165649e-05 -1.53711922e-04  1.30231639e-02 -2.27586349e-04
 -1.13448124e-04  0.00000000e+00  2.84254446e-03 -5.91204611e-03  0.00000000e+00
  1.45724315e-04  0.00000000e+00  0.00000000e+00  9.45306099e-05  5.15304223e-04
  4.58251696e-03 -2.18303897e-03 -5.29766324e-05  3.95158606e-03  0.00000000e+00
 -4.36679166e-04 -7.34827048e-04  2.45748526e-04 -2.82010441e-04  0.00000000e+00
 -7.87395050e-05 -2.07229705e-04 -2.50702413e-04 -3.80755060e-04  0.00000000e+00
  6.77431606e-04  3.70379310e-04  5.73635149e-05 -1.09872669e-04  0.00000000e+00
  2.22664551e-04  1.03424633e-03 -4.90264474e-03 -1.59508211e-04 -1.85948256e-04
  0.00000000e+00  7.80812632e-04 -1.35709250e-03  0.00000000e+00  2.56778371e-04
  0.00000000e+00  0.00000000e+00  7.80505330e-05  1.30161538e-04  9.88746821e-01
 -4.48267171e-02  4.66849059e-02 -2.03077491e-03 -3.27449603e-03  0.00000000e+00
 -6.57984229e-03 -8.51624818e-03  0.00000000e+00  4.96036181e-04  0.00000000e+00
  0.00000000e+00  1.06127761e-04  4.84732923e-04  2.26840897e-05 -1.70432611e-04
  1.36029800e-02 -1.55402373e-05  1.79186122e-04  0.00000000e+00  8.27103515e-03
  2.89122062e-03  0.00000000e+00  4.33304801e-05  0.00000000e+00  0.00000000e+00
 -2.24681110e-04  1.16565595e-05 -3.49140423e-04  7.68292713e-05 -1.36663062e-02
 -3.23869790e-04  1.32810703e-03  0.00000000e+00  3.38124818e-03 -7.85354696e-03
  0.00000000e+00 -8.71840782e-04  0.00000000e+00  0.00000000e+00 -1.66116374e-03
 -7.13074058e-04 -2.53890785e-04 -3.07746646e-04 -2.30392564e-02  1.04114207e-03
  1.97924345e-04  0.00000000e+00 -9.45395812e-03  6.49908254e-03  0.00000000e+00
 -5.85143560e-04  0.00000000e+00  0.00000000e+00  1.67554133e-03  2.80058085e-04
  5.26337447e-05 -5.53121763e-04 -7.18197188e-05 -2.48909994e-05  0.00000000e+00
  8.76951555e-04  1.25693581e-03 -3.69452507e-05  1.07541286e-04  0.00000000e+00
  2.59605683e-05 -7.31783664e-05  1.11309280e-04  6.03153151e-04  0.00000000e+00
 -1.59222805e-04 -6.79978133e-04  4.92066623e-04  5.28375228e-05  0.00000000e+00
  6.38276125e-05 -8.42535070e-04  1.30536016e-02 -1.03528864e-03 -1.62188965e-04
  0.00000000e+00  4.75303051e-03  1.07967341e-02  0.00000000e+00 -1.20754894e-03
  0.00000000e+00  0.00000000e+00  2.61972152e-04  1.11190947e-03 -3.22974331e-05
 -7.96518163e-04  1.62497647e-02 -6.31955005e-04  1.28592581e-03  0.00000000e+00
 -2.41288486e-03 -8.99748867e-03  0.00000000e+00 -1.13430289e-03  0.00000000e+00
  0.00000000e+00 -9.58501665e-04 -2.78330987e-04 -6.11858777e-04 -9.05794340e-04
 -1.94953577e-03 -6.66008133e-04  5.80011604e-04  0.00000000e+00 -3.90508322e-03
 -2.99694966e-03  0.00000000e+00  1.90136624e-04  0.00000000e+00  0.00000000e+00
 -5.86760104e-04 -3.28489411e-07 -9.88308729e-01 -4.83349357e-02  4.51069575e-03
  8.94919940e-04  2.53756150e-04  0.00000000e+00  9.70600715e-03 -3.80125332e-03
  0.00000000e+00  3.05574517e-03  0.00000000e+00  0.00000000e+00 -7.16387984e-04
  7.83105233e-04 -1.75688256e-04 -7.66224559e-04 -1.06674260e-03 -9.14023161e-04
 -1.25886397e-04  0.00000000e+00 -3.53887983e-03  2.86797600e-03  0.00000000e+00
  2.13266662e-04  0.00000000e+00  0.00000000e+00 -2.07847207e-04  3.24540246e-04
  1.79931827e-03  4.76392115e-04 -9.47066766e-04 -2.99223763e-04  0.00000000e+00
 -6.28229162e-04 -1.72342595e-03  1.17015165e-04  1.76614445e-04  0.00000000e+00
  4.35920246e-03 -7.58869197e-03 -2.97338029e-03  1.08202227e-03  0.00000000e+00
 -6.28928127e-04 -1.49220664e-03  1.38478241e-04 -7.29022975e-05  0.00000000e+00
  7.84682608e-05 -9.92513677e-04  1.51123363e-02  7.52362307e-04 -1.93348337e-04
  0.00000000e+00 -6.09392418e-03  9.76353777e-03  0.00000000e+00 -1.27756574e-03
  0.00000000e+00  0.00000000e+00  3.08539049e-04 -1.10915282e-03 -8.83016648e-05
 -6.87677818e-04  5.13718170e-03 -1.06791313e-04 -1.26950521e-04  0.00000000e+00
  1.40974124e-03 -2.14714761e-03  0.00000000e+00  1.00493883e-04  0.00000000e+00
  0.00000000e+00 -1.22165873e-04 -2.34416549e-04 -9.88267888e-01 -4.74185515e-02
  1.29473763e-02 -8.34165276e-04  1.12454456e-03  0.00000000e+00 -8.00299922e-03
  2.80130431e-03  0.00000000e+00  2.81542028e-03  0.00000000e+00  0.00000000e+00
 -1.00517425e-03 -1.01828700e-03  8.30310138e-04 -7.57294288e-04 -9.41792380e-03
  4.23875895e-04  1.57702654e-04  0.00000000e+00  9.34173415e-03 -5.99655869e-03
  0.00000000e+00  3.16845216e-04  0.00000000e+00  0.00000000e+00 -5.19330862e-04
 -1.66696393e-05 -1.44790128e-02  2.49712601e-03  1.73796965e-04 -1.33093928e-03
 -2.25688849e-03  0.00000000e+00  5.42006405e-03 -4.59824825e-03  0.00000000e+00
 -1.07586894e-03  0.00000000e+00  0.00000000e+00 -1.12677723e-03  5.33826530e-04
  1.30273783e-03  5.79862857e-04  9.24256718e-04 -2.92625964e-04  0.00000000e+00
  4.63547828e-03 -7.41704011e-03  3.14732457e-03  7.10350342e-04  0.00000000e+00
 -1.25463739e-03 -2.90977705e-03 -1.29852439e-04  2.65970346e-04  0.00000000e+00
  7.96540424e-04  2.25819598e-03 -1.39938672e-04  4.97722638e-04  0.00000000e+00
  1.20616756e-04  1.07785796e-03 -4.59958350e-03  7.51171639e-05 -3.14415717e-04
  0.00000000e+00 -2.50238740e-03 -1.82678284e-03  0.00000000e+00 -5.38561479e-05
  0.00000000e+00  0.00000000e+00 -2.50801678e-04 -2.13241654e-04 -2.51078547e-05
  1.40520895e-03 -1.67894217e-02 -9.82408403e-04  6.51670129e-05  0.00000000e+00
  8.34481702e-03  3.88724688e-03  0.00000000e+00  1.29894322e-03  0.00000000e+00
  0.00000000e+00 -1.20171067e-03 -2.13438735e-04 -1.37086865e-02 -3.58601243e-03
  4.50308943e-03 -3.60066890e-04 -2.51003933e-03  0.00000000e+00 -6.75291303e-03
  6.28827872e-04  0.00000000e+00  1.17773291e-03  0.00000000e+00  0.00000000e+00
  7.83869696e-04 -1.04405603e-03 -3.68301169e-04  9.40613755e-04  1.06601634e-02
 -3.17472329e-04  3.67645765e-04  0.00000000e+00 -9.96167550e-03  1.78603122e-03
  0.00000000e+00 -2.65928161e-04  0.00000000e+00  0.00000000e+00  6.35598627e-05
 -2.33294004e-04  9.88284019e-01  4.73051007e-02 -1.65368168e-02  5.74044007e-04
  1.77880267e-05  0.00000000e+00  8.16120936e-03 -6.80117807e-05  0.00000000e+00
 -2.73406109e-03  0.00000000e+00  0.00000000e+00 -5.29192799e-04 -9.59553557e-04
 -1.92957301e-04 -4.84052945e-04  1.83979433e-04 -1.97140475e-04  0.00000000e+00
 -7.78723305e-04 -3.10608737e-03  4.64573558e-04  2.00610284e-04  0.00000000e+00
  1.03853180e-03  2.27533115e-03  2.11574460e-04  5.84349275e-05  0.00000000e+00
 -4.56661126e-03  6.96751674e-03 -2.14662582e-03  2.29936484e-03  0.00000000e+00
  1.90443276e-01  3.74262570e-01  1.74147316e-01 -5.67436087e-03 -7.48946382e-02
  0.00000000e+00  1.70872322e-03  4.61697596e-02  0.00000000e+00 -1.06245294e-02
  0.00000000e+00  0.00000000e+00 -1.94917634e-03  8.82888329e-04  1.14070975e-01
  2.18270805e-01  1.04280209e-01  4.49893887e-02  8.26654951e-02  0.00000000e+00
 -1.36958602e-02 -2.53875966e-02  0.00000000e+00 -7.52795278e-03  0.00000000e+00
  0.00000000e+00 -3.06273932e-03  2.44834144e-03 -9.82757660e-02  1.82041583e-01
  2.12824872e-04  9.60637351e-02 -1.54751622e-02  0.00000000e+00 -3.11384270e-04
 -9.77901498e-03  0.00000000e+00 -1.05413342e-02  0.00000000e+00  0.00000000e+00
  5.35251107e-03 -4.35964486e-03 -1.29132598e-01  2.44882595e-01  3.73934091e-03
 -1.09737210e-01  1.20092781e-02  0.00000000e+00 -2.43013284e-03 -7.15539998e-03
  0.00000000e+00 -1.34773028e-02  0.00000000e+00  0.00000000e+00  2.37050378e-03
  1.38798607e-03 -7.92310882e-02  1.47724413e-01  3.14061965e-02  5.67100850e-02
 -5.28120009e-02  0.00000000e+00  5.45814861e-04 -1.74376949e-02  0.00000000e+00
 -8.79456379e-03  0.00000000e+00  0.00000000e+00  1.47392644e-03 -4.79099179e-03
  8.41972894e-02  5.48606562e-03 -1.60245330e-04  1.26176283e-02  0.00000000e+00
  1.85678817e-02  1.52496915e-03  3.57013828e-03  1.28886937e-03  0.00000000e+00
  2.49677619e-02  4.98549524e-03 -4.34400315e-03  1.59845272e-03  0.00000000e+00
  1.30589708e-02  4.04557205e-03  1.62140298e-03 -1.61786316e-03  0.00000000e+00
  1.73267386e-01  3.55510396e-01  1.60378937e-01  2.46126475e-02  4.18908400e-02
  0.00000000e+00 -1.07168818e-02  1.10110114e-03  0.00000000e+00 -4.60694487e-03
  0.00000000e+00  0.00000000e+00  3.06318144e-03 -2.71038131e-03 -1.92449488e-01
 -3.86774652e-01 -1.57473639e-01 -6.35219206e-02 -8.85540564e-02  0.00000000e+00
  2.39068524e-02  1.82732462e-02  0.00000000e+00  7.16054564e-03  0.00000000e+00
  0.00000000e+00 -1.27828452e-03  8.87919104e-04 -4.27002047e-02  8.43854900e-02
  2.35179498e-02  3.71353986e-02 -8.85575808e-02  0.00000000e+00  9.35262494e-03
 -2.05085356e-02  0.00000000e+00 -3.16481165e-03  0.00000000e+00  0.00000000e+00
  1.85181638e-03 -1.34196423e-02  4.67587380e-02 -9.67013140e-02 -1.35722973e-02
 -8.04094486e-03 -1.76138699e-01  0.00000000e+00  7.02347082e-03 -3.62728883e-02
  0.00000000e+00  3.61717375e-03  0.00000000e+00  0.00000000e+00  7.76267225e-03
  1.90605574e-02  9.46895867e-02 -1.84957601e-01 -2.76254859e-02 -1.07788620e-01
 -6.73340909e-04  0.00000000e+00 -2.37101435e-02  1.66319278e-02  0.00000000e+00
  7.81516724e-03  0.00000000e+00  0.00000000e+00 -1.30297748e-02  4.37697938e-03
  1.42076195e-01  6.27135277e-03 -8.24460848e-04  1.84072987e-02  0.00000000e+00
  2.23172333e-02  1.63342774e-03  3.48707447e-03  7.31336194e-04  0.00000000e+00
 -9.67713947e-03 -8.40798156e-03  4.18626207e-04 -1.40380004e-03  0.00000000e+00
 -3.29243066e-02 -1.50745841e-02 -3.51636612e-03  3.36150114e-03  0.00000000e+00
  3.59644325e-02  7.61116547e-02  2.27342083e-02 -2.01340282e-01  5.35087138e-02
  0.00000000e+00  8.92850500e-02 -2.08339394e-02  0.00000000e+00  1.64074911e-04
  0.00000000e+00  0.00000000e+00  1.17332736e-03  1.23800983e-02  3.98681236e-02
  8.42397721e-02  2.76874048e-02 -9.71760731e-02  7.95473181e-02  0.00000000e+00
  4.09385754e-02 -2.23589094e-02  0.00000000e+00 -2.84550546e-05  0.00000000e+00
  0.00000000e+00 -1.21321074e-02 -6.62972650e-03  1.80886341e-01 -3.58747249e-01
 -9.13649556e-02 -3.83214143e-02 -5.15400303e-02  0.00000000e+00 -9.94395167e-03
 -2.52104521e-02  0.00000000e+00  9.39628237e-03  0.00000000e+00  0.00000000e+00
  4.49424949e-03 -1.81611449e-03 -1.49650318e-01  3.03527646e-01  8.92503677e-02
 -6.27780893e-03 -1.32959208e-02  0.00000000e+00 -1.90260987e-02 -2.15645548e-03
  0.00000000e+00 -7.33782381e-03  0.00000000e+00  0.00000000e+00 -1.01211029e-02
  6.67182026e-03  1.41599895e-01 -2.77138604e-01 -7.05772981e-02  4.42504249e-02
  8.17525361e-02  0.00000000e+00  9.73365784e-03  2.55785165e-02  0.00000000e+00
  7.03271856e-03  0.00000000e+00  0.00000000e+00  7.13280733e-03 -6.46679987e-03
  6.27981760e-02  4.72548100e-03  4.42744764e-03  7.13958756e-03  0.00000000e+00
 -1.03083868e-01 -2.13128276e-02 -1.12725878e-02 -4.86708531e-03  0.00000000e+00
  1.02304513e-01  2.18546183e-02 -1.14823228e-02  3.87418796e-03  0.00000000e+00
 -7.48108945e-02 -1.44079019e-02 -3.89687585e-03  8.96556116e-03  0.00000000e+00
  5.57905831e-02  1.13444598e-01  6.95344767e-02  4.68544430e-02  3.53549411e-01
  0.00000000e+00 -2.40831197e-02 -1.15139121e-01  0.00000000e+00  1.01238124e-03
  0.00000000e+00  0.00000000e+00 -3.83373613e-03 -1.11550566e-03  9.14479205e-02
  1.96874358e-01  1.28992755e-01  1.18408567e-01 -1.07380487e-01  0.00000000e+00
 -3.70287522e-02  4.22321821e-02  0.00000000e+00  1.07884731e-03  0.00000000e+00
  0.00000000e+00  1.26332000e-02 -2.51654053e-03  8.09458243e-02 -1.74475501e-01
 -8.25844696e-02 -5.02767993e-02 -4.75375014e-02  0.00000000e+00 -3.39237808e-02
 -4.80433858e-02  0.00000000e+00  3.67666268e-03  0.00000000e+00  0.00000000e+00
 -1.35304471e-02 -3.03419699e-03  1.08374731e-01 -2.34695523e-01 -6.53011475e-02
  4.50883478e-02  3.43926194e-02  0.00000000e+00  2.66390953e-02 -1.51163493e-02
  0.00000000e+00  5.39509787e-03  0.00000000e+00  0.00000000e+00 -1.40972865e-02
 -3.37131442e-03 -6.11530813e-02  1.31518130e-01  1.01129716e-01  1.19604790e-01
  1.45125836e-01  0.00000000e+00  2.36888009e-02  1.01604717e-02  0.00000000e+00
 -2.20093264e-03  0.00000000e+00  0.00000000e+00  1.40274527e-02  2.70703336e-03
  3.08749213e-01  5.80399169e-02 -2.02843890e-03  2.67505673e-02  0.00000000e+00
 -4.05262617e-02 -2.18519059e-02 -3.17792722e-03 -3.47783066e-04  0.00000000e+00
 -8.21492792e-02 -3.15243536e-02  6.54333783e-03 -1.55127074e-04  0.00000000e+00
  7.98219814e-02  1.36774308e-02  5.94194741e-03 -4.42806257e-03  0.00000000e+00
  2.96607141e-03  6.14519180e-03  2.42780199e-02 -3.02888146e-01 -3.68961107e-02
  0.00000000e+00  1.47392838e-01  2.07910939e-02  0.00000000e+00  1.98398597e-05
  0.00000000e+00  0.00000000e+00 -9.98440018e-04  5.20498258e-03 -8.10653939e-02
 -1.74958943e-01 -9.45483659e-02  1.33091254e-01 -1.06615581e-01  0.00000000e+00
 -4.79591445e-02  2.94207788e-02  0.00000000e+00 -8.16754872e-04  0.00000000e+00
  0.00000000e+00  9.34419312e-03  4.59286015e-03  5.89777085e-02 -1.23323583e-01
 -4.48543908e-02 -1.92384096e-03  2.26588965e-01  0.00000000e+00 -1.60134639e-02
  6.05731346e-02  0.00000000e+00  3.47357288e-03  0.00000000e+00  0.00000000e+00
 -3.31434865e-03  1.16870719e-02 -2.66493305e-02  5.12119734e-02 -7.51998158e-03
 -5.14941359e-02 -2.69280063e-01  0.00000000e+00  2.07286578e-03 -6.36276693e-02
  0.00000000e+00 -1.72222017e-03  0.00000000e+00  0.00000000e+00  8.46356598e-03
  1.21377971e-02 -1.46416072e-01  3.02072985e-01  1.19990174e-01 -6.55578924e-02
  3.85820703e-02  0.00000000e+00 -1.42280078e-04 -7.43987781e-03  0.00000000e+00
 -3.54606242e-03  0.00000000e+00  0.00000000e+00 -1.83567335e-03  1.98067672e-03
 -1.89589183e-02 -2.98629235e-03  8.70703527e-03 -1.36934681e-03  0.00000000e+00
 -1.05273154e-01 -3.26049166e-02 -8.62383283e-03 -1.44290937e-04  0.00000000e+00
  4.93649910e-02  1.14074380e-02 -4.74401493e-03 -2.29830093e-03  0.00000000e+00
  1.67006027e-01  4.26754420e-02  6.47287084e-03 -1.29966142e-02  0.00000000e+00
  4.33194606e-02  9.85788974e-02  9.73010117e-02  2.52625685e-02 -1.96664274e-01
  0.00000000e+00 -1.17568850e-02  1.00238148e-01  0.00000000e+00 -1.50069565e-04
  0.00000000e+00  0.00000000e+00 -7.11483449e-03 -2.05446393e-04  2.71677742e-03
  7.40163092e-03 -1.86777473e-02  1.43148713e-01 -2.17046308e-02  0.00000000e+00
 -5.77006185e-02  3.73325916e-03  0.00000000e+00 -1.21454806e-03  0.00000000e+00
  0.00000000e+00  2.69698599e-03  1.15510948e-02  8.53538679e-02 -1.74232210e-01
 -1.19459533e-01  2.29529578e-01 -4.69601045e-02  0.00000000e+00  4.76284133e-02
 -3.49750163e-04  0.00000000e+00 -1.31959854e-03  0.00000000e+00  0.00000000e+00
  1.30823626e-02 -5.29051532e-03  9.02021002e-02 -1.87234998e-01 -1.16915834e-01
 -2.46842122e-01 -1.68090522e-02  0.00000000e+00 -5.24875517e-02  1.67377356e-02
  0.00000000e+00 -1.60260426e-03  0.00000000e+00  0.00000000e+00  1.33529604e-02
  1.36713205e-03  3.15638176e-02 -6.20859610e-02 -3.22803183e-02  1.73587504e-01
 -1.51999734e-02  0.00000000e+00  6.51052073e-02 -1.94142327e-02  0.00000000e+00
 -2.41603384e-03  0.00000000e+00  0.00000000e+00  3.72014066e-03 -9.67487068e-03
 -1.00010687e-01 -2.05363125e-02 -5.69574365e-04 -7.71187215e-03  0.00000000e+00
 -2.05073520e-01 -4.36868747e-02 -1.35799569e-02 -7.93491827e-03  0.00000000e+00
 -2.24990095e-01 -4.71924019e-02  1.61114655e-02 -6.73407120e-03  0.00000000e+00
 -8.73673692e-02 -5.38862562e-03 -2.29374808e-03  7.79525825e-03  0.00000000e+00
  1.56237375e-02  4.58745383e-02  2.00250183e-02  1.73900055e-01 -2.11237936e-01
  0.00000000e+00 -9.28411976e-02  6.14674965e-02  0.00000000e+00  5.77183622e-04
  0.00000000e+00  0.00000000e+00  1.63944303e-02 -1.84664081e-03  1.15369957e-02
  2.57406763e-02 -8.88142458e-03  7.94718962e-02 -2.11913921e-01  0.00000000e+00
 -2.21725920e-02  1.04728009e-01  0.00000000e+00  2.03298000e-03  0.00000000e+00
  0.00000000e+00  1.18347532e-02 -1.16069985e-02  1.27465770e-02 -1.97163253e-02
 -6.06018488e-03  7.41037371e-02 -3.03938408e-01  0.00000000e+00  1.39491182e-02
 -9.15538479e-02  0.00000000e+00 -2.76367849e-03  0.00000000e+00  0.00000000e+00
  8.24825475e-03 -1.63395803e-02 -1.97826406e-02  4.19622418e-02  7.48683609e-02
  1.65596257e-01 -1.66366324e-01  0.00000000e+00  3.63319740e-02 -3.41328287e-02
  0.00000000e+00  2.67367161e-03  0.00000000e+00  0.00000000e+00  1.48690707e-02
  1.82858119e-03  2.99611244e-04 -2.40167398e-03  2.91886943e-02  1.07673245e-01
  2.95616756e-01  0.00000000e+00  5.21251692e-02  9.77463901e-02  0.00000000e+00
  2.17078111e-04  0.00000000e+00  0.00000000e+00  5.01705786e-03  1.83330608e-03
 -2.05561091e-01 -8.10048802e-02 -5.09452139e-03 -1.17236985e-02  0.00000000e+00
  1.79801651e-02  3.90513686e-03  2.61886513e-03 -6.04893769e-03  0.00000000e+00
  2.00362518e-01  6.97881217e-02 -1.06054385e-02  6.96467153e-04  0.00000000e+00
  1.45515168e-01  4.80260142e-02  7.63336629e-03 -4.37526146e-03  0.00000000e+00
  0.00000000e+00  0.00000000e+00  0.00000000e+00  0.00000000e+00  0.00000000e+00
  3.72544918e-01  0.00000000e+00  0.00000000e+00 -2.47261863e-01  0.00000000e+00
 -8.05478868e-04 -1.24490572e-02  0.00000000e+00  0.00000000e+00  0.00000000e+00
  0.00000000e+00  0.00000000e+00  0.00000000e+00  0.00000000e+00  2.07894486e-01
  0.00000000e+00  0.00000000e+00 -1.14361768e-01  0.00000000e+00  8.44840962e-03
  1.54570921e-02  0.00000000e+00  0.00000000e+00  0.00000000e+00  0.00000000e+00
  0.00000000e+00  0.00000000e+00  0.00000000e+00 -2.17021290e-01  0.00000000e+00
  0.00000000e+00 -1.03311141e-01  0.00000000e+00 -1.91272303e-02  2.46300384e-03
  0.00000000e+00  0.00000000e+00  0.00000000e+00  0.00000000e+00  0.00000000e+00
  0.00000000e+00  0.00000000e+00 -2.61240166e-01  0.00000000e+00  0.00000000e+00
 -1.25836689e-01  0.00000000e+00  2.13422393e-02 -1.20507725e-03  0.00000000e+00
  0.00000000e+00  0.00000000e+00  0.00000000e+00  0.00000000e+00  0.00000000e+00
  0.00000000e+00 -1.71750920e-01  0.00000000e+00  0.00000000e+00 -8.21365372e-02
  0.00000000e+00 -9.98410406e-03  1.17361431e-02  0.00000000e+00  0.00000000e+00
  0.00000000e+00  0.00000000e+00  0.00000000e+00  0.00000000e+00 -1.21431850e-02
  0.00000000e+00  0.00000000e+00  0.00000000e+00  0.00000000e+00 -5.81280252e-03
  0.00000000e+00  0.00000000e+00  0.00000000e+00  0.00000000e+00 -6.73967489e-03
  0.00000000e+00  0.00000000e+00  0.00000000e+00  0.00000000e+00 -3.93954480e-03
  5.13290869e-03  7.29309114e-03  3.83617804e-02  2.59055566e-01  6.47911611e-02
  0.00000000e+00 -1.23073873e-01 -8.06463687e-03  0.00000000e+00 -5.25855248e-05
  0.00000000e+00  0.00000000e+00 -8.21044465e-03 -1.01954959e-02 -3.52623425e-02
 -7.75979619e-02 -9.45924635e-02 -1.19586144e-01  5.80427972e-02  0.00000000e+00
  5.86032509e-02 -2.54633977e-02  0.00000000e+00 -1.20711626e-03  0.00000000e+00
  0.00000000e+00 -1.00209495e-03 -4.27700218e-03  2.21710974e-02 -3.35571149e-02
 -9.48294187e-02  3.37928762e-01  1.28382921e-01  0.00000000e+00  6.40073326e-02