
    -----------------------------------------------------------------------
          Psi4: An Open-Source Ab Initio Electronic Structure Package
                               Psi4 1.4.1 release

                         Git: Rev {HEAD} cd00f19


    D. G. A. Smith, L. A. Burns, A. C. Simmonett, R. M. Parrish,
    M. C. Schieber, R. Galvelis, P. Kraus, H. Kruse, R. Di Remigio,
    A. Alenaizan, A. M. James, S. Lehtola, J. P. Misiewicz, M. Scheurer,
    R. A. Shaw, J. B. Schriber, Y. Xie, Z. L. Glick, D. A. Sirianni,
    J. S. O'Brien, J. M. Waldrop, A. Kumar, E. G. Hohenstein,
    B. P. Pritchard, B. R. Brooks, H. F. Schaefer III, A. Yu. Sokolov,
    K. Patkowski, A. E. DePrince III, U. Bozkaya, R. A. King,
    F. A. Evangelista, J. M. Turney, T. D. Crawford, C. D. Sherrill,
    J. Chem. Phys. 152(18) 184108 (2020). https://doi.org/10.1063/5.0006002

                            Additional Code Authors
    E. T. Seidl, C. L. Janssen, E. F. Valeev, M. L. Leininger,
    J. F. Gonthier, R. M. Richard, H. R. McAlexander, M. Saitow, X. Wang,
    P. Verma, and M. H. Lechner

             Previous Authors, Complete List of Code Contributors,
                       and Citations for Specific Modules
    https://github.com/psi4/psi4/blob/master/codemeta.json
    https://github.com/psi4/psi4/graphs/contributors
    http://psicode.org/psi4manual/master/introduction.html#citing-psifour

    -----------------------------------------------------------------------


    Psi4 started on: Monday, 29 November 2021 04:10PM

    Process ID: 438619
    Host:       atl1-1-01-013-24-l.pace.gatech.edu
    PSIDATADIR: /storage/home/hhive1/csargent30/data/miniconda3/envs/psi4/share/psi4
    Memory:     500.0 MiB
    Threads:    2

  ==> Input File <==

--------------------------------------------------------------------------
# PSI4 file produced by CrystaLattE

# Generated from:               pyrazine.xyz
# Psithon input for N-mer:      2mer-0+92
# Number of atoms per monomer:  [10, 10]
# Number of replicas:           2
# COM priority:                 5.542067990924e-05
# Minimum COM separations:      13.880
# Separation priority:          1.431331652055e-04
# Minimum monomer separations:  10.116
# Cutoff priority:              7.487216080182e-06
# Nuclear repulsion energy:     492.7170791735424

memory 7 GB

molecule Dimer_0_92 {
  N           -1.33084758       0.98032658       0.42627037
  N            3.95377333       0.98032658       0.42627037
  H            3.56713674       4.35218569      -0.94230973
  H           -0.94421098       4.35218569      -0.94230973
  H           -0.94421098      -2.39153253       1.79485047
  H            3.56713674      -2.39153253       1.79485047
  C            2.62292576       2.94097974      -0.42627037
  C            0.00000000       2.94097974      -0.42627037
  C            0.00000000      -0.98032658       1.27881112
  C            2.62292576      -0.98032658       1.27881112
--
  N           -1.33084758     -21.13022498      14.53534357
  N            3.95377333     -21.13022498      14.53534357
  H            3.56713674     -17.75836587      13.16676347
  H           -0.94421098     -17.75836587      13.16676347
  H           -0.94421098     -24.50208409      15.90392367
  H            3.56713674     -24.50208409      15.90392367
  C            2.62292576     -19.16957182      13.68280282
  C            0.00000000     -19.16957182      13.68280282
  C            0.00000000     -23.09087814      15.38788432
  C            2.62292576     -23.09087814      15.38788432
units = au
no_com
no_reorient
}

set {
  e_convergence 10
  d_convergence 10
  scf_type df
  mp2_type df
  cc_type df
  freeze_core true
}

energy('sapt0/aug-cc-pvdz')

--------------------------------------------------------------------------

  Memory set to   6.519 GiB by Python driver.

Scratch directory: /tmp/

Scratch directory: /tmp/

  //>>>>>>>>>>>>>>>>>>>>>>>>>>>>>>>>>>>//
  //              Dimer HF             //
  //<<<<<<<<<<<<<<<<<<<<<<<<<<<<<<<<<<<//


*** tstart() called on atl1-1-01-013-24-l.pace.gatech.edu
*** at Mon Nov 29 16:10:41 2021

   => Loading Basis Set <=

    Name: AUG-CC-PVDZ
    Role: ORBITAL
    Keyword: BASIS
    atoms 1-2, 11-12  entry N          line   218 file /storage/home/hhive1/csargent30/data/miniconda3/envs/psi4/share/psi4/basis/aug-cc-pvdz.gbs
    atoms 3-6, 13-16  entry H          line    40 file /storage/home/hhive1/csargent30/data/miniconda3/envs/psi4/share/psi4/basis/aug-cc-pvdz.gbs
    atoms 7-10, 17-20 entry C          line   182 file /storage/home/hhive1/csargent30/data/miniconda3/envs/psi4/share/psi4/basis/aug-cc-pvdz.gbs


         ---------------------------------------------------------
                                   SCF
               by Justin Turney, Rob Parrish, Andy Simmonett
                          and Daniel G. A. Smith
                              RHF Reference
                        2 Threads,   6675 MiB Core
         ---------------------------------------------------------

  ==> Geometry <==

    Molecular point group: c1
    Full point group: C1

    Geometry (in Bohr), charge = 0, multiplicity = 1:

       Center              X                  Y                   Z               Mass
    ------------   -----------------  -----------------  -----------------  -----------------
         N           -1.330847580000     0.980326580000     0.426270370000    14.003074004430
         N            3.953773330000     0.980326580000     0.426270370000    14.003074004430
         H            3.567136740000     4.352185690000    -0.942309730000     1.007825032230
         H           -0.944210980000     4.352185690000    -0.942309730000     1.007825032230
         H           -0.944210980000    -2.391532530000     1.794850470000     1.007825032230
         H            3.567136740000    -2.391532530000     1.794850470000     1.007825032230
         C            2.622925760000     2.940979740000    -0.426270370000    12.000000000000
         C            0.000000000000     2.940979740000    -0.426270370000    12.000000000000
         C            0.000000000000    -0.980326580000     1.278811120000    12.000000000000
         C            2.622925760000    -0.980326580000     1.278811120000    12.000000000000
         N           -1.330847580000   -21.130224980000    14.535343570000    14.003074004430
         N            3.953773330000   -21.130224980000    14.535343570000    14.003074004430
         H            3.567136740000   -17.758365870000    13.166763470000     1.007825032230
         H           -0.944210980000   -17.758365870000    13.166763470000     1.007825032230
         H           -0.944210980000   -24.502084090000    15.903923670000     1.007825032230
         H            3.567136740000   -24.502084090000    15.903923670000     1.007825032230
         C            2.622925760000   -19.169571820000    13.682802820000    12.000000000000
         C            0.000000000000   -19.169571820000    13.682802820000    12.000000000000
         C            0.000000000000   -23.090878140000    15.387884320000    12.000000000000
         C            2.622925760000   -23.090878140000    15.387884320000    12.000000000000

  Running in c1 symmetry.

  Rotational constants: A =      0.07281  B =      0.00113  C =      0.00111 [cm^-1]
  Rotational constants: A =   2182.72925  B =     33.79718  C =     33.36896 [MHz]
  Nuclear repulsion =  492.717079098813542

  Charge       = 0
  Multiplicity = 1
  Electrons    = 84
  Nalpha       = 42
  Nbeta        = 42

  ==> Algorithm <==

  SCF Algorithm Type is DF.
  DIIS enabled.
  MOM disabled.
  Fractional occupation disabled.
  Guess Type is SAD.
  Energy threshold   = 1.00e-10
  Density threshold  = 1.00e-10
  Integral threshold = 1.00e-12

  ==> Primary Basis <==

  Basis Set: AUG-CC-PVDZ
    Blend: AUG-CC-PVDZ
    Number of shells: 148
    Number of basis functions: 348
    Number of Cartesian functions: 372
    Spherical Harmonics?: true
    Max angular momentum: 2

   => Loading Basis Set <=

    Name: (AUG-CC-PVDZ AUX)
    Role: JKFIT
    Keyword: DF_BASIS_SCF
    atoms 1-2, 11-12  entry N          line   212 file /storage/home/hhive1/csargent30/data/miniconda3/envs/psi4/share/psi4/basis/aug-cc-pvdz-jkfit.gbs
    atoms 3-6, 13-16  entry H          line    70 file /storage/home/hhive1/csargent30/data/miniconda3/envs/psi4/share/psi4/basis/aug-cc-pvdz-jkfit.gbs
    atoms 7-10, 17-20 entry C          line   154 file /storage/home/hhive1/csargent30/data/miniconda3/envs/psi4/share/psi4/basis/aug-cc-pvdz-jkfit.gbs

  ==> Integral Setup <==

  ==> DiskDFJK: Density-Fitted J/K Matrices <==

    J tasked:                  Yes
    K tasked:                  Yes
    wK tasked:                  No
    OpenMP threads:              2
    Integrals threads:           2
    Memory [MiB]:             5006
    Algorithm:                Core
    Integral Cache:           SAVE
    Schwarz Cutoff:          1E-12
    Fitting Condition:       1E-10

   => Auxiliary Basis Set <=

  Basis Set: (AUG-CC-PVDZ AUX)
    Blend: AUG-CC-PVDZ-JKFIT
    Number of shells: 432
    Number of basis functions: 1288
    Number of Cartesian functions: 1492
    Spherical Harmonics?: true
    Max angular momentum: 3

  Minimum eigenvalue in the overlap matrix is 9.0371253352E-06.
  Reciprocal condition number of the overlap matrix is 7.0484999591E-07.
    Using symmetric orthogonalization.

  ==> Pre-Iterations <==

  SCF Guess: Superposition of Atomic Densities via on-the-fly atomic UHF (no occupation information).

   -------------------------
    Irrep   Nso     Nmo
   -------------------------
     A        348     348
   -------------------------
    Total     348     348
   -------------------------

  ==> Iterations <==

                           Total Energy        Delta E     RMS |[F,P]|

   @DF-RHF iter SAD:  -524.65046252981938   -5.24650e+02   0.00000e+00
   @DF-RHF iter   1:  -525.07877411495986   -4.28312e-01   1.58378e-03 DIIS
   @DF-RHF iter   2:  -525.25753770433084   -1.78764e-01   5.80885e-04 DIIS
   @DF-RHF iter   3:  -525.27721283557662   -1.96751e-02   1.81412e-04 DIIS
   @DF-RHF iter   4:  -525.27966309072781   -2.45026e-03   5.34170e-05 DIIS
   @DF-RHF iter   5:  -525.27984239499438   -1.79304e-04   1.06857e-05 DIIS
   @DF-RHF iter   6:  -525.27985549881782   -1.31038e-05   3.46955e-06 DIIS
   @DF-RHF iter   7:  -525.27985740481734   -1.90600e-06   9.06069e-07 DIIS
   @DF-RHF iter   8:  -525.27985755269583   -1.47878e-07   1.45373e-07 DIIS
   @DF-RHF iter   9:  -525.27985755665725   -3.96142e-09   4.85803e-08 DIIS
   @DF-RHF iter  10:  -525.27985755689269   -2.35445e-10   1.82276e-08 DIIS
   @DF-RHF iter  11:  -525.27985755693282   -4.01315e-11   2.57082e-09 DIIS
   @DF-RHF iter  12:  -525.27985755693419   -1.36424e-12   5.38396e-10 DIIS
   @DF-RHF iter  13:  -525.27985755693328    9.09495e-13   1.92826e-10 DIIS
   @DF-RHF iter  14:  -525.27985755693499   -1.70530e-12   8.85454e-11 DIIS
  Energy and wave function converged.


  ==> Post-Iterations <==

    Orbital Energies [Eh]
    ---------------------

    Doubly Occupied:

       1A    -15.598560     2A    -15.598560     3A    -15.598541
       4A    -15.598541     5A    -11.274749     6A    -11.274749
       7A    -11.274681     8A    -11.274681     9A    -11.273496
      10A    -11.273496    11A    -11.273445    12A    -11.273445
      13A     -1.313838    14A     -1.313838    15A     -1.224665
      16A     -1.224665    17A     -1.077303    18A     -1.077303
      19A     -0.923159    20A     -0.923159    21A     -0.919785
      22A     -0.919785    23A     -0.761134    24A     -0.761132
      25A     -0.738908    26A     -0.738908    27A     -0.706709
      28A     -0.706708    29A     -0.648191    30A     -0.648189
      31A     -0.581213    32A     -0.581213    33A     -0.574859
      34A     -0.574859    35A     -0.497594    36A     -0.497594
      37A     -0.434771    38A     -0.434771    39A     -0.416343
      40A     -0.416343    41A     -0.360425    42A     -0.360425

    Virtual:

      43A      0.029701    44A      0.035386    45A      0.037895
      46A      0.044733    47A      0.044946    48A      0.049608
      49A      0.055512    50A      0.061967    51A      0.066603
      52A      0.066628    53A      0.098906    54A      0.098943
      55A      0.099058    56A      0.101506    57A      0.113697
      58A      0.113731    59A      0.114434    60A      0.114494
      61A      0.118683    62A      0.124801    63A      0.124853
      64A      0.127623    65A      0.127666    66A      0.128369
      67A      0.132314    68A      0.132348    69A      0.149345
      70A      0.154781    71A      0.159481    72A      0.159838
      73A      0.162447    74A      0.163473    75A      0.172764
      76A      0.172773    77A      0.174468    78A      0.174938
      79A      0.186476    80A      0.186639    81A      0.203496
      82A      0.203589    83A      0.212042    84A      0.212313
      85A      0.250065    86A      0.250084    87A      0.267261
      88A      0.267341    89A      0.277508    90A      0.277719
      91A      0.287215    92A      0.287308    93A      0.291010
      94A      0.291185    95A      0.294653    96A      0.302535
      97A      0.312833    98A      0.316421    99A      0.319944
     100A      0.319993   101A      0.350766   102A      0.357377
     103A      0.357435   104A      0.363613   105A      0.364022
     106A      0.364294   107A      0.382264   108A      0.382527
     109A      0.396106   110A      0.401069   111A      0.409218
     112A      0.410205   113A      0.424869   114A      0.425103
     115A      0.433075   116A      0.433326   117A      0.433843
     118A      0.443750   119A      0.451284   120A      0.452228
     121A      0.470926   122A      0.471281   123A      0.491630
     124A      0.491631   125A      0.504280   126A      0.504475
     127A      0.513839   128A      0.515309   129A      0.523183
     130A      0.525629   131A      0.527460   132A      0.529834
     133A      0.553670   134A      0.554788   135A      0.569205
     136A      0.571727   137A      0.587019   138A      0.587072
     139A      0.591004   140A      0.591084   141A      0.593263
     142A      0.593354   143A      0.608402   144A      0.608442
     145A      0.642953   146A      0.643110   147A      0.643128
     148A      0.644929   149A      0.684603   150A      0.684686
     151A      0.687246   152A      0.687271   153A      0.687325
     154A      0.689445   155A      0.689456   156A      0.693641
     157A      0.693738   158A      0.695393   159A      0.702479
     160A      0.706525   161A      0.745943   162A      0.746160
     163A      0.754297   164A      0.754301   165A      0.766376
     166A      0.766731   167A      0.780912   168A      0.780957
     169A      0.799134   170A      0.799460   171A      0.802216
     172A      0.802292   173A      0.817991   174A      0.819430
     175A      0.830584   176A      0.830588   177A      0.847014
     178A      0.847033   179A      0.880007   180A      0.880121
     181A      0.885848   182A      0.885979   183A      0.894188
     184A      0.894202   185A      0.928752   186A      0.928783
     187A      0.938908   188A      0.939158   189A      0.948848
     190A      0.948922   191A      0.996028   192A      0.996375
     193A      0.997803   194A      0.999416   195A      1.012536
     196A      1.012539   197A      1.031812   198A      1.034836
     199A      1.050671   200A      1.050747   201A      1.088843
     202A      1.089000   203A      1.099837   204A      1.100217
     205A      1.120573   206A      1.123528   207A      1.123608
     208A      1.123612   209A      1.133634   210A      1.134403
     211A      1.158190   212A      1.158556   213A      1.173057
     214A      1.173097   215A      1.234324   216A      1.235911
     217A      1.238289   218A      1.238301   219A      1.308736
     220A      1.309973   221A      1.330660   222A      1.330705
     223A      1.413487   224A      1.414219   225A      1.450739
     226A      1.451480   227A      1.485115   228A      1.486394
     229A      1.487500   230A      1.487878   231A      1.498204
     232A      1.499332   233A      1.501986   234A      1.503138
     235A      1.517579   236A      1.518033   237A      1.572004
     238A      1.572244   239A      1.572884   240A      1.574863
     241A      1.586099   242A      1.589474   243A      1.634067
     244A      1.636466   245A      1.638627   246A      1.643889
     247A      1.647453   248A      1.648376   249A      1.675861
     250A      1.676378   251A      1.716493   252A      1.716522
     253A      1.746096   254A      1.746106   255A      1.754544
     256A      1.754708   257A      1.782687   258A      1.784337
     259A      1.815226   260A      1.815227   261A      1.892786
     262A      1.892872   263A      1.915656   264A      1.915662
     265A      1.964327   266A      1.964346   267A      1.987169
     268A      1.987209   269A      2.030482   270A      2.031054
     271A      2.090992   272A      2.091174   273A      2.100450
     274A      2.100645   275A      2.142454   276A      2.142457
     277A      2.162805   278A      2.162931   279A      2.189958
     280A      2.190002   281A      2.191980   282A      2.194162
     283A      2.199680   284A      2.200329   285A      2.201902
     286A      2.201908   287A      2.227111   288A      2.227185
     289A      2.312151   290A      2.312384   291A      2.354337
     292A      2.355327   293A      2.430408   294A      2.430546
     295A      2.438471   296A      2.438518   297A      2.518829
     298A      2.518958   299A      2.521892   300A      2.521894
     301A      2.584294   302A      2.584360   303A      2.605700
     304A      2.605892   305A      2.664221   306A      2.665390
     307A      2.674883   308A      2.674975   309A      2.684791
     310A      2.687750   311A      2.713353   312A      2.713957
     313A      2.718100   314A      2.718103   315A      2.843517
     316A      2.843541   317A      2.865271   318A      2.865272
     319A      2.937900   320A      2.939967   321A      3.001065
     322A      3.001816   323A      3.017324   324A      3.017461
     325A      3.031646   326A      3.031827   327A      3.093588
     328A      3.093784   329A      3.216346   330A      3.226010
     331A      3.255473   332A      3.255502   333A      3.283950
     334A      3.285129   335A      3.365221   336A      3.366301
     337A      3.412512   338A      3.413481   339A      3.514426
     340A      3.514429   341A      3.589803   342A      3.590703
     343A      3.627271   344A      3.627287   345A      3.976666
     346A      3.976938   347A      4.252986   348A      4.253001

    Final Occupation by Irrep:
              A
    DOCC [    42 ]

  @DF-RHF Final Energy:  -525.27985755693499

   => Energetics <=

    Nuclear Repulsion Energy =            492.7170790988135423
    One-Electron Energy =               -1686.1044096129699028
    Two-Electron Energy =                 668.1074729572214892
    Total Energy =                       -525.2798575569349850

Computation Completed


Properties will be evaluated at   0.000000,   0.000000,   0.000000 [a0]

Properties computed using the SCF density matrix

  Nuclear Dipole Moment: [e a0]
     X:   110.1629      Y:  -846.2957      Z:   628.3878

  Electronic Dipole Moment: [e a0]
     X:  -110.1629      Y:   846.2957      Z:  -628.3878

  Dipole Moment: [e a0]
     X:     0.0000      Y:     0.0000      Z:     0.0000     Total:     0.0000

  Dipole Moment: [D]
     X:     0.0000      Y:     0.0000      Z:     0.0000     Total:     0.0000


*** tstop() called on atl1-1-01-013-24-l.pace.gatech.edu at Mon Nov 29 16:10:54 2021
Module time:
	user time   =      25.02 seconds =       0.42 minutes
	system time =       0.99 seconds =       0.02 minutes
	total time  =         13 seconds =       0.22 minutes
Total time:
	user time   =      25.02 seconds =       0.42 minutes
	system time =       0.99 seconds =       0.02 minutes
	total time  =         13 seconds =       0.22 minutes

  //>>>>>>>>>>>>>>>>>>>>>>>>>>>>>>>>>>>//
  //            Monomer A HF           //
  //<<<<<<<<<<<<<<<<<<<<<<<<<<<<<<<<<<<//


*** tstart() called on atl1-1-01-013-24-l.pace.gatech.edu
*** at Mon Nov 29 16:10:54 2021

   => Loading Basis Set <=

    Name: AUG-CC-PVDZ
    Role: ORBITAL
    Keyword: BASIS
    atoms 1-2, 11-12  entry N          line   218 file /storage/home/hhive1/csargent30/data/miniconda3/envs/psi4/share/psi4/basis/aug-cc-pvdz.gbs
    atoms 3-6, 13-16  entry H          line    40 file /storage/home/hhive1/csargent30/data/miniconda3/envs/psi4/share/psi4/basis/aug-cc-pvdz.gbs
    atoms 7-10, 17-20 entry C          line   182 file /storage/home/hhive1/csargent30/data/miniconda3/envs/psi4/share/psi4/basis/aug-cc-pvdz.gbs


         ---------------------------------------------------------
                                   SCF
               by Justin Turney, Rob Parrish, Andy Simmonett
                          and Daniel G. A. Smith
                              RHF Reference
                        2 Threads,   6675 MiB Core
         ---------------------------------------------------------

  ==> Geometry <==

    Molecular point group: c1
    Full point group: C1

    Geometry (in Bohr), charge = 0, multiplicity = 1:

       Center              X                  Y                   Z               Mass
    ------------   -----------------  -----------------  -----------------  -----------------
         N           -1.330847580000     0.980326580000     0.426270370000    14.003074004430
         N            3.953773330000     0.980326580000     0.426270370000    14.003074004430
         H            3.567136740000     4.352185690000    -0.942309730000     1.007825032230
         H           -0.944210980000     4.352185690000    -0.942309730000     1.007825032230
         H           -0.944210980000    -2.391532530000     1.794850470000     1.007825032230
         H            3.567136740000    -2.391532530000     1.794850470000     1.007825032230
         C            2.622925760000     2.940979740000    -0.426270370000    12.000000000000
         C            0.000000000000     2.940979740000    -0.426270370000    12.000000000000
         C            0.000000000000    -0.980326580000     1.278811120000    12.000000000000
         C            2.622925760000    -0.980326580000     1.278811120000    12.000000000000
      Gh(N)          -1.330847580000   -21.130224980000    14.535343570000    14.003074004430
      Gh(N)           3.953773330000   -21.130224980000    14.535343570000    14.003074004430
      Gh(H)           3.567136740000   -17.758365870000    13.166763470000     1.007825032230
      Gh(H)          -0.944210980000   -17.758365870000    13.166763470000     1.007825032230
      Gh(H)          -0.944210980000   -24.502084090000    15.903923670000     1.007825032230
      Gh(H)           3.567136740000   -24.502084090000    15.903923670000     1.007825032230
      Gh(C)           2.622925760000   -19.169571820000    13.682802820000    12.000000000000
      Gh(C)           0.000000000000   -19.169571820000    13.682802820000    12.000000000000
      Gh(C)           0.000000000000   -23.090878140000    15.387884320000    12.000000000000
      Gh(C)           2.622925760000   -23.090878140000    15.387884320000    12.000000000000

  Running in c1 symmetry.

  Rotational constants: A =      0.07281  B =      0.00113  C =      0.00111 [cm^-1]
  Rotational constants: A =   2182.72925  B =     33.79718  C =     33.36896 [MHz]
  Nuclear repulsion =  212.551731110485349

  Charge       = 0
  Multiplicity = 1
  Electrons    = 42
  Nalpha       = 21
  Nbeta        = 21

  ==> Algorithm <==

  SCF Algorithm Type is DF.
  DIIS enabled.
  MOM disabled.
  Fractional occupation disabled.
  Guess Type is SAD.
  Energy threshold   = 1.00e-10
  Density threshold  = 1.00e-10
  Integral threshold = 1.00e-12

  ==> Primary Basis <==

  Basis Set: AUG-CC-PVDZ
    Blend: AUG-CC-PVDZ
    Number of shells: 148
    Number of basis functions: 348
    Number of Cartesian functions: 372
    Spherical Harmonics?: true
    Max angular momentum: 2

   => Loading Basis Set <=

    Name: (AUG-CC-PVDZ AUX)
    Role: JKFIT
    Keyword: DF_BASIS_SCF
    atoms 1-2, 11-12  entry N          line   212 file /storage/home/hhive1/csargent30/data/miniconda3/envs/psi4/share/psi4/basis/aug-cc-pvdz-jkfit.gbs
    atoms 3-6, 13-16  entry H          line    70 file /storage/home/hhive1/csargent30/data/miniconda3/envs/psi4/share/psi4/basis/aug-cc-pvdz-jkfit.gbs
    atoms 7-10, 17-20 entry C          line   154 file /storage/home/hhive1/csargent30/data/miniconda3/envs/psi4/share/psi4/basis/aug-cc-pvdz-jkfit.gbs

  ==> Integral Setup <==

  ==> DiskDFJK: Density-Fitted J/K Matrices <==

    J tasked:                  Yes
    K tasked:                  Yes
    wK tasked:                  No
    OpenMP threads:              2
    Integrals threads:           2
    Memory [MiB]:             5006
    Algorithm:                Core
    Integral Cache:           LOAD
    Schwarz Cutoff:          1E-12
    Fitting Condition:       1E-10

   => Auxiliary Basis Set <=

  Basis Set: (AUG-CC-PVDZ AUX)
    Blend: AUG-CC-PVDZ-JKFIT
    Number of shells: 432
    Number of basis functions: 1288
    Number of Cartesian functions: 1492
    Spherical Harmonics?: true
    Max angular momentum: 3

  Minimum eigenvalue in the overlap matrix is 9.0371253352E-06.
  Reciprocal condition number of the overlap matrix is 7.0484999591E-07.
    Using symmetric orthogonalization.

  ==> Pre-Iterations <==

  SCF Guess: Superposition of Atomic Densities via on-the-fly atomic UHF (no occupation information).

   -------------------------
    Irrep   Nso     Nmo
   -------------------------
     A        348     348
   -------------------------
    Total     348     348
   -------------------------

  ==> Iterations <==

                           Total Energy        Delta E     RMS |[F,P]|

   @DF-RHF iter SAD:  -262.32523126351538   -2.62325e+02   0.00000e+00
   @DF-RHF iter   1:  -262.53940882746525   -2.14178e-01   1.11986e-03 DIIS
   @DF-RHF iter   2:  -262.62878939858069   -8.93806e-02   4.10666e-04 DIIS
   @DF-RHF iter   3:  -262.63862398202195   -9.83458e-03   1.28248e-04 DIIS
   @DF-RHF iter   4:  -262.63984873405280   -1.22475e-03   3.77601e-05 DIIS
   @DF-RHF iter   5:  -262.63993833491560   -8.96009e-05   7.55560e-06 DIIS
   @DF-RHF iter   6:  -262.63994488519154   -6.55028e-06   2.45265e-06 DIIS
   @DF-RHF iter   7:  -262.63994583756784   -9.52376e-07   6.40131e-07 DIIS
   @DF-RHF iter   8:  -262.63994591145467   -7.38868e-08   9.91692e-08 DIIS
   @DF-RHF iter   9:  -262.63994591344232   -1.98764e-09   1.88229e-08 DIIS
   @DF-RHF iter  10:  -262.63994591351207   -6.97469e-11   3.19158e-09 DIIS
   @DF-RHF iter  11:  -262.63994591351485   -2.78533e-12   5.22854e-10 DIIS
   @DF-RHF iter  12:  -262.63994591351485    0.00000e+00   9.98550e-11 DIIS
  Energy and wave function converged.


  ==> Post-Iterations <==

    Orbital Energies [Eh]
    ---------------------

    Doubly Occupied:

       1A    -15.598072     2A    -15.598053     3A    -11.274238
       4A    -11.274194     5A    -11.272974     6A    -11.272969
       7A     -1.313347     8A     -1.224175     9A     -1.076803
      10A     -0.922662    11A     -0.919282    12A     -0.760637
      13A     -0.738402    14A     -0.706214    15A     -0.647687
      16A     -0.580711    17A     -0.574369    18A     -0.497113
      19A     -0.434288    20A     -0.415855    21A     -0.359924

    Virtual:

      22A      0.021392    23A      0.032907    24A      0.037446
      25A      0.039991    26A      0.043676    27A      0.048032
      28A      0.055640    29A      0.061894    30A      0.067110
      31A      0.079117    32A      0.084308    33A      0.099419
      34A      0.100937    35A      0.102819    36A      0.107974
      37A      0.108293    38A      0.114183    39A      0.114960
      40A      0.121879    41A      0.124229    42A      0.124446
      43A      0.125360    44A      0.128754    45A      0.130609
      46A      0.132782    47A      0.133386    48A      0.149671
      49A      0.152448    50A      0.158730    51A      0.159509
      52A      0.163071    53A      0.163492    54A      0.166910
      55A      0.175101    56A      0.176712    57A      0.186899
      58A      0.198523    59A      0.202760    60A      0.204408
      61A      0.206293    62A      0.212602    63A      0.223211
      64A      0.234179    65A      0.239102    66A      0.250554
      67A      0.254679    68A      0.267767    69A      0.270394
      70A      0.278105    71A      0.287838    72A      0.292338
      73A      0.297073    74A      0.303489    75A      0.315867
      76A      0.320121    77A      0.320452    78A      0.328660
      79A      0.331042    80A      0.343540    81A      0.357924
      82A      0.359286    83A      0.364671    84A      0.380287
      85A      0.382808    86A      0.385049    87A      0.398834
      88A      0.401550    89A      0.410181    90A      0.418989
      91A      0.424335    92A      0.425530    93A      0.433928
      94A      0.438628    95A      0.441354    96A      0.452253
      97A      0.460099    98A      0.460861    99A      0.471570
     100A      0.475579   101A      0.478467   102A      0.492140
     103A      0.504889   104A      0.507505   105A      0.515383
     106A      0.522930   107A      0.525349   108A      0.528599
     109A      0.536242   110A      0.554619   111A      0.557661
     112A      0.560930   113A      0.564025   114A      0.571026
     115A      0.582475   116A      0.587537   117A      0.591527
     118A      0.593802   119A      0.595498   120A      0.608935
     121A      0.614579   122A      0.619633   123A      0.635802
     124A      0.643526   125A      0.644635   126A      0.648757
     127A      0.650904   128A      0.679248   129A      0.684240
     130A      0.685161   131A      0.687759   132A      0.689998
     133A      0.692613   134A      0.695117   135A      0.704813
     136A      0.719280   137A      0.728073   138A      0.745880
     139A      0.747357   140A      0.754819   141A      0.767025
     142A      0.775102   143A      0.781415   144A      0.793163
     145A      0.799815   146A      0.802748   147A      0.810527
     148A      0.811514   149A      0.819190   150A      0.824215
     151A      0.831072   152A      0.847516   153A      0.847524
     154A      0.848800   155A      0.868268   156A      0.880574
     157A      0.886427   158A      0.887566   159A      0.894689
     160A      0.905534   161A      0.928717   162A      0.929284
     163A      0.939520   164A      0.947109   165A      0.949403
     166A      0.970197   167A      0.976380   168A      0.986094
     169A      0.996695   170A      0.999116   171A      1.013017
     172A      1.031786   173A      1.033855   174A      1.046362
     175A      1.051204   176A      1.075830   177A      1.089389
     178A      1.089734   179A      1.100491   180A      1.122621
     181A      1.124049   182A      1.130465   183A      1.134467
     184A      1.139758   185A      1.158873   186A      1.168009
     187A      1.170092   188A      1.173569   189A      1.191989
     190A      1.193235   191A      1.199922   192A      1.221899
     193A      1.235651   194A      1.238805   195A      1.250464
     196A      1.307018   197A      1.309846   198A      1.317723
     199A      1.325872   200A      1.329063   201A      1.331171
     202A      1.346395   203A      1.388644   204A      1.414368
     205A      1.447921   206A      1.451580   207A      1.454913
     208A      1.478938   209A      1.485902   210A      1.487125
     211A      1.488200   212A      1.499426   213A      1.503051
     214A      1.518325   215A      1.572708   216A      1.574499
     217A      1.588296   218A      1.636261   219A      1.641067
     220A      1.648413   221A      1.658730   222A      1.676615
     223A      1.697544   224A      1.716995   225A      1.746599
     226A      1.755122   227A      1.783960   228A      1.815728
     229A      1.893334   230A      1.916158   231A      1.964838
     232A      1.987680   233A      2.031257   234A      2.069713
     235A      2.091578   236A      2.101045   237A      2.102200
     238A      2.118864   239A      2.142953   240A      2.156084
     241A      2.158706   242A      2.163371   243A      2.190489
     244A      2.193612   245A      2.194285   246A      2.200457
     247A      2.202411   248A      2.227641   249A      2.234215
     250A      2.241144   251A      2.249083   252A      2.309444
     253A      2.312754   254A      2.319144   255A      2.355336
     256A      2.384243   257A      2.418924   258A      2.430948
     259A      2.434831   260A      2.438141   261A      2.438993
     262A      2.472096   263A      2.486173   264A      2.497726
     265A      2.519396   266A      2.522396   267A      2.524550
     268A      2.545419   269A      2.568162   270A      2.584788
     271A      2.591913   272A      2.606294   273A      2.625434
     274A      2.665360   275A      2.675417   276A      2.686738
     277A      2.714152   278A      2.716422   279A      2.718595
     280A      2.726078   281A      2.767364   282A      2.844017
     283A      2.865761   284A      2.903494   285A      2.939431
     286A      2.946807   287A      2.955195   288A      2.972780
     289A      3.001955   290A      3.017882   291A      3.032230
     292A      3.057754   293A      3.064887   294A      3.094194
     295A      3.113346   296A      3.221639   297A      3.245149
     298A      3.255987   299A      3.285031   300A      3.289124
     301A      3.321380   302A      3.337200   303A      3.339923
     304A      3.348087   305A      3.350864   306A      3.366264
     307A      3.412102   308A      3.413489   309A      3.470225
     310A      3.501409   311A      3.514924   312A      3.520854
     313A      3.590704   314A      3.604280   315A      3.605229
     316A      3.627773   317A      3.699967   318A      3.818665
     319A      3.830163   320A      3.940456   321A      3.968736
     322A      3.977304   323A      4.010956   324A      4.194442
     325A      4.242692   326A      4.253495   327A      4.441491
     328A      4.546303   329A      4.578760   330A      4.867121
     331A      4.975739   332A      5.057548   333A      5.261539
     334A      5.316011   335A      5.630205   336A      5.690898
     337A      5.826625   338A      5.952080   339A      6.283460
     340A      6.306436   341A      6.453219   342A      6.630668
     343A     18.125173   344A     18.207463   345A     19.017361
     346A     19.342520   347A     25.286552   348A     25.374264

    Final Occupation by Irrep:
              A
    DOCC [    21 ]

  @DF-RHF Final Energy:  -262.63994591351485

   => Energetics <=

    Nuclear Repulsion Energy =            212.5517311104853491
    One-Electron Energy =                -775.4594175703197152
    Two-Electron Energy =                 300.2677405463195441
    Total Energy =                       -262.6399459135148504

Computation Completed


Properties will be evaluated at   0.000000,   0.000000,   0.000000 [a0]

Properties computed using the SCF density matrix

  Nuclear Dipole Moment: [e a0]
     X:    55.0814      Y:    41.1737      Z:    17.9034

  Electronic Dipole Moment: [e a0]
     X:   -55.0814      Y:   -41.1737      Z:   -17.9034

  Dipole Moment: [e a0]
     X:     0.0000      Y:    -0.0000      Z:     0.0000     Total:     0.0000

  Dipole Moment: [D]
     X:     0.0000      Y:    -0.0000      Z:     0.0000     Total:     0.0000


*** tstop() called on atl1-1-01-013-24-l.pace.gatech.edu at Mon Nov 29 16:11:03 2021
Module time:
	user time   =      15.08 seconds =       0.25 minutes
	system time =       0.50 seconds =       0.01 minutes
	total time  =          9 seconds =       0.15 minutes
Total time:
	user time   =      40.11 seconds =       0.67 minutes
	system time =       1.49 seconds =       0.02 minutes
	total time  =         22 seconds =       0.37 minutes

  //>>>>>>>>>>>>>>>>>>>>>>>>>>>>>>>>>>>//
  //            Monomer B HF           //
  //<<<<<<<<<<<<<<<<<<<<<<<<<<<<<<<<<<<//


*** tstart() called on atl1-1-01-013-24-l.pace.gatech.edu
*** at Mon Nov 29 16:11:03 2021

   => Loading Basis Set <=

    Name: AUG-CC-PVDZ
    Role: ORBITAL
    Keyword: BASIS
    atoms 1-2, 11-12  entry N          line   218 file /storage/home/hhive1/csargent30/data/miniconda3/envs/psi4/share/psi4/basis/aug-cc-pvdz.gbs
    atoms 3-6, 13-16  entry H          line    40 file /storage/home/hhive1/csargent30/data/miniconda3/envs/psi4/share/psi4/basis/aug-cc-pvdz.gbs
    atoms 7-10, 17-20 entry C          line   182 file /storage/home/hhive1/csargent30/data/miniconda3/envs/psi4/share/psi4/basis/aug-cc-pvdz.gbs


         ---------------------------------------------------------
                                   SCF
               by Justin Turney, Rob Parrish, Andy Simmonett
                          and Daniel G. A. Smith
                              RHF Reference
                        2 Threads,   6675 MiB Core
         ---------------------------------------------------------

  ==> Geometry <==

    Molecular point group: c1
    Full point group: C1

    Geometry (in Bohr), charge = 0, multiplicity = 1:

       Center              X                  Y                   Z               Mass
    ------------   -----------------  -----------------  -----------------  -----------------
      Gh(N)          -1.330847580000     0.980326580000     0.426270370000    14.003074004430
      Gh(N)           3.953773330000     0.980326580000     0.426270370000    14.003074004430
      Gh(H)           3.567136740000     4.352185690000    -0.942309730000     1.007825032230
      Gh(H)          -0.944210980000     4.352185690000    -0.942309730000     1.007825032230
      Gh(H)          -0.944210980000    -2.391532530000     1.794850470000     1.007825032230
      Gh(H)           3.567136740000    -2.391532530000     1.794850470000     1.007825032230
      Gh(C)           2.622925760000     2.940979740000    -0.426270370000    12.000000000000
      Gh(C)           0.000000000000     2.940979740000    -0.426270370000    12.000000000000
      Gh(C)           0.000000000000    -0.980326580000     1.278811120000    12.000000000000
      Gh(C)           2.622925760000    -0.980326580000     1.278811120000    12.000000000000
         N           -1.330847580000   -21.130224980000    14.535343570000    14.003074004430
         N            3.953773330000   -21.130224980000    14.535343570000    14.003074004430
         H            3.567136740000   -17.758365870000    13.166763470000     1.007825032230
         H           -0.944210980000   -17.758365870000    13.166763470000     1.007825032230
         H           -0.944210980000   -24.502084090000    15.903923670000     1.007825032230
         H            3.567136740000   -24.502084090000    15.903923670000     1.007825032230
         C            2.622925760000   -19.169571820000    13.682802820000    12.000000000000
         C            0.000000000000   -19.169571820000    13.682802820000    12.000000000000
         C            0.000000000000   -23.090878140000    15.387884320000    12.000000000000
         C            2.622925760000   -23.090878140000    15.387884320000    12.000000000000

  Running in c1 symmetry.

  Rotational constants: A =      0.07281  B =      0.00113  C =      0.00111 [cm^-1]
  Rotational constants: A =   2182.72925  B =     33.79718  C =     33.36896 [MHz]
  Nuclear repulsion =  212.551731042300531

  Charge       = 0
  Multiplicity = 1
  Electrons    = 42
  Nalpha       = 21
  Nbeta        = 21

  ==> Algorithm <==

  SCF Algorithm Type is DF.
  DIIS enabled.
  MOM disabled.
  Fractional occupation disabled.
  Guess Type is SAD.
  Energy threshold   = 1.00e-10
  Density threshold  = 1.00e-10
  Integral threshold = 1.00e-12

  ==> Primary Basis <==

  Basis Set: AUG-CC-PVDZ
    Blend: AUG-CC-PVDZ
    Number of shells: 148
    Number of basis functions: 348
    Number of Cartesian functions: 372
    Spherical Harmonics?: true
    Max angular momentum: 2

   => Loading Basis Set <=

    Name: (AUG-CC-PVDZ AUX)
    Role: JKFIT
    Keyword: DF_BASIS_SCF
    atoms 1-2, 11-12  entry N          line   212 file /storage/home/hhive1/csargent30/data/miniconda3/envs/psi4/share/psi4/basis/aug-cc-pvdz-jkfit.gbs
    atoms 3-6, 13-16  entry H          line    70 file /storage/home/hhive1/csargent30/data/miniconda3/envs/psi4/share/psi4/basis/aug-cc-pvdz-jkfit.gbs
    atoms 7-10, 17-20 entry C          line   154 file /storage/home/hhive1/csargent30/data/miniconda3/envs/psi4/share/psi4/basis/aug-cc-pvdz-jkfit.gbs

  ==> Integral Setup <==

  ==> DiskDFJK: Density-Fitted J/K Matrices <==

    J tasked:                  Yes
    K tasked:                  Yes
    wK tasked:                  No
    OpenMP threads:              2
    Integrals threads:           2
    Memory [MiB]:             5006
    Algorithm:                Core
    Integral Cache:           LOAD
    Schwarz Cutoff:          1E-12
    Fitting Condition:       1E-10

   => Auxiliary Basis Set <=

  Basis Set: (AUG-CC-PVDZ AUX)
    Blend: AUG-CC-PVDZ-JKFIT
    Number of shells: 432
    Number of basis functions: 1288
    Number of Cartesian functions: 1492
    Spherical Harmonics?: true
    Max angular momentum: 3

  Minimum eigenvalue in the overlap matrix is 9.0371253352E-06.
  Reciprocal condition number of the overlap matrix is 7.0484999591E-07.
    Using symmetric orthogonalization.

  ==> Pre-Iterations <==

  SCF Guess: Superposition of Atomic Densities via on-the-fly atomic UHF (no occupation information).

   -------------------------
    Irrep   Nso     Nmo
   -------------------------
     A        348     348
   -------------------------
    Total     348     348
   -------------------------

  ==> Iterations <==

                           Total Energy        Delta E     RMS |[F,P]|

   @DF-RHF iter SAD:  -262.32523125615148   -2.62325e+02   0.00000e+00
   @DF-RHF iter   1:  -262.53940882615848   -2.14178e-01   1.11986e-03 DIIS
   @DF-RHF iter   2:  -262.62878939715461   -8.93806e-02   4.10666e-04 DIIS
   @DF-RHF iter   3:  -262.63862398054999   -9.83458e-03   1.28248e-04 DIIS
   @DF-RHF iter   4:  -262.63984873258107   -1.22475e-03   3.77601e-05 DIIS
   @DF-RHF iter   5:  -262.63993833344495   -8.96009e-05   7.55560e-06 DIIS
   @DF-RHF iter   6:  -262.63994488372049   -6.55028e-06   2.45265e-06 DIIS
   @DF-RHF iter   7:  -262.63994583609644   -9.52376e-07   6.40131e-07 DIIS
   @DF-RHF iter   8:  -262.63994590998448   -7.38880e-08   9.91692e-08 DIIS
   @DF-RHF iter   9:  -262.63994591197041   -1.98594e-09   1.88229e-08 DIIS
   @DF-RHF iter  10:  -262.63994591204158   -7.11680e-11   3.19158e-09 DIIS
   @DF-RHF iter  11:  -262.63994591204391   -2.33058e-12   5.22853e-10 DIIS
   @DF-RHF iter  12:  -262.63994591204369    2.27374e-13   9.98456e-11 DIIS
  Energy and wave function converged.


  ==> Post-Iterations <==

    Orbital Energies [Eh]
    ---------------------

    Doubly Occupied:

       1A    -15.598072     2A    -15.598053     3A    -11.274238
       4A    -11.274194     5A    -11.272974     6A    -11.272969
       7A     -1.313347     8A     -1.224175     9A     -1.076803
      10A     -0.922662    11A     -0.919282    12A     -0.760637
      13A     -0.738402    14A     -0.706214    15A     -0.647687
      16A     -0.580711    17A     -0.574369    18A     -0.497113
      19A     -0.434288    20A     -0.415855    21A     -0.359924

    Virtual:

      22A      0.021392    23A      0.032907    24A      0.037446
      25A      0.039991    26A      0.043676    27A      0.048032
      28A      0.055640    29A      0.061894    30A      0.067110
      31A      0.079117    32A      0.084308    33A      0.099419
      34A      0.100937    35A      0.102819    36A      0.107974
      37A      0.108293    38A      0.114183    39A      0.114960
      40A      0.121879    41A      0.124229    42A      0.124446
      43A      0.125360    44A      0.128754    45A      0.130609
      46A      0.132782    47A      0.133386    48A      0.149671
      49A      0.152448    50A      0.158730    51A      0.159509
      52A      0.163071    53A      0.163492    54A      0.166910
      55A      0.175101    56A      0.176712    57A      0.186899
      58A      0.198523    59A      0.202760    60A      0.204408
      61A      0.206293    62A      0.212602    63A      0.223211
      64A      0.234179    65A      0.239102    66A      0.250554
      67A      0.254679    68A      0.267767    69A      0.270394
      70A      0.278105    71A      0.287838    72A      0.292338
      73A      0.297072    74A      0.303489    75A      0.315867
      76A      0.320121    77A      0.320452    78A      0.328660
      79A      0.331042    80A      0.343540    81A      0.357924
      82A      0.359286    83A      0.364671    84A      0.380287
      85A      0.382807    86A      0.385049    87A      0.398834
      88A      0.401550    89A      0.410181    90A      0.418989
      91A      0.424335    92A      0.425530    93A      0.433928
      94A      0.438628    95A      0.441354    96A      0.452253
      97A      0.460099    98A      0.460861    99A      0.471569
     100A      0.475579   101A      0.478467   102A      0.492140
     103A      0.504889   104A      0.507505   105A      0.515383
     106A      0.522930   107A      0.525349   108A      0.528599
     109A      0.536242   110A      0.554619   111A      0.557661
     112A      0.560930   113A      0.564025   114A      0.571026
     115A      0.582475   116A      0.587537   117A      0.591527
     118A      0.593802   119A      0.595498   120A      0.608935
     121A      0.614579   122A      0.619633   123A      0.635802
     124A      0.643526   125A      0.644635   126A      0.648757
     127A      0.650904   128A      0.679248   129A      0.684240
     130A      0.685161   131A      0.687759   132A      0.689998
     133A      0.692613   134A      0.695117   135A      0.704813
     136A      0.719280   137A      0.728073   138A      0.745880
     139A      0.747357   140A      0.754819   141A      0.767025
     142A      0.775102   143A      0.781415   144A      0.793163
     145A      0.799815   146A      0.802748   147A      0.810527
     148A      0.811514   149A      0.819190   150A      0.824215
     151A      0.831072   152A      0.847516   153A      0.847524
     154A      0.848800   155A      0.868268   156A      0.880574
     157A      0.886427   158A      0.887566   159A      0.894689
     160A      0.905534   161A      0.928717   162A      0.929284
     163A      0.939520   164A      0.947109   165A      0.949403
     166A      0.970197   167A      0.976380   168A      0.986094
     169A      0.996695   170A      0.999116   171A      1.013017
     172A      1.031786   173A      1.033855   174A      1.046362
     175A      1.051204   176A      1.075830   177A      1.089389
     178A      1.089734   179A      1.100491   180A      1.122621
     181A      1.124049   182A      1.130465   183A      1.134467
     184A      1.139758   185A      1.158873   186A      1.168009
     187A      1.170092   188A      1.173569   189A      1.191989
     190A      1.193235   191A      1.199922   192A      1.221899
     193A      1.235651   194A      1.238805   195A      1.250464
     196A      1.307018   197A      1.309846   198A      1.317723
     199A      1.325872   200A      1.329063   201A      1.331171
     202A      1.346395   203A      1.388644   204A      1.414368
     205A      1.447921   206A      1.451580   207A      1.454913
     208A      1.478938   209A      1.485902   210A      1.487125
     211A      1.488200   212A      1.499426   213A      1.503051
     214A      1.518325   215A      1.572708   216A      1.574499
     217A      1.588296   218A      1.636261   219A      1.641067
     220A      1.648413   221A      1.658730   222A      1.676615
     223A      1.697544   224A      1.716995   225A      1.746599
     226A      1.755122   227A      1.783960   228A      1.815728
     229A      1.893334   230A      1.916158   231A      1.964838
     232A      1.987680   233A      2.031257   234A      2.069713
     235A      2.091578   236A      2.101045   237A      2.102200
     238A      2.118864   239A      2.142953   240A      2.156084
     241A      2.158706   242A      2.163371   243A      2.190489
     244A      2.193612   245A      2.194285   246A      2.200457
     247A      2.202411   248A      2.227641   249A      2.234215
     250A      2.241144   251A      2.249083   252A      2.309444
     253A      2.312754   254A      2.319144   255A      2.355336
     256A      2.384243   257A      2.418924   258A      2.430948
     259A      2.434831   260A      2.438141   261A      2.438993
     262A      2.472096   263A      2.486173   264A      2.497726
     265A      2.519396   266A      2.522396   267A      2.524550
     268A      2.545419   269A      2.568162   270A      2.584788
     271A      2.591913   272A      2.606294   273A      2.625434
     274A      2.665360   275A      2.675417   276A      2.686738
     277A      2.714152   278A      2.716422   279A      2.718595
     280A      2.726078   281A      2.767364   282A      2.844017
     283A      2.865761   284A      2.903494   285A      2.939431
     286A      2.946807   287A      2.955195   288A      2.972780
     289A      3.001955   290A      3.017882   291A      3.032229
     292A      3.057754   293A      3.064887   294A      3.094194
     295A      3.113346   296A      3.221639   297A      3.245149
     298A      3.255987   299A      3.285031   300A      3.289124
     301A      3.321380   302A      3.337200   303A      3.339923
     304A      3.348087   305A      3.350864   306A      3.366264
     307A      3.412102   308A      3.413489   309A      3.470225
     310A      3.501409   311A      3.514924   312A      3.520854
     313A      3.590704   314A      3.604280   315A      3.605229
     316A      3.627773   317A      3.699967   318A      3.818665
     319A      3.830163   320A      3.940456   321A      3.968736
     322A      3.977304   323A      4.010956   324A      4.194442
     325A      4.242692   326A      4.253495   327A      4.441491
     328A      4.546303   329A      4.578760   330A      4.867121
     331A      4.975739   332A      5.057548   333A      5.261539
     334A      5.316011   335A      5.630205   336A      5.690898
     337A      5.826625   338A      5.952080   339A      6.283460
     340A      6.306436   341A      6.453219   342A      6.630668
     343A     18.125173   344A     18.207463   345A     19.017361
     346A     19.342520   347A     25.286552   348A     25.374264

    Final Occupation by Irrep:
              A
    DOCC [    21 ]

  @DF-RHF Final Energy:  -262.63994591204369

   => Energetics <=

    Nuclear Repulsion Energy =            212.5517310423005313
    One-Electron Energy =                -775.4594174331816703
    Two-Electron Energy =                 300.2677404788374815
    Total Energy =                       -262.6399459120436859

Computation Completed


Properties will be evaluated at   0.000000,   0.000000,   0.000000 [a0]

Properties computed using the SCF density matrix

  Nuclear Dipole Moment: [e a0]
     X:    55.0814      Y:  -887.4694      Z:   610.4844

  Electronic Dipole Moment: [e a0]
     X:   -55.0814      Y:   887.4695      Z:  -610.4844

  Dipole Moment: [e a0]
     X:     0.0000      Y:     0.0000      Z:    -0.0000     Total:     0.0000

  Dipole Moment: [D]
     X:     0.0000      Y:     0.0000      Z:    -0.0000     Total:     0.0000


*** tstop() called on atl1-1-01-013-24-l.pace.gatech.edu at Mon Nov 29 16:11:11 2021
Module time:
	user time   =      15.05 seconds =       0.25 minutes
	system time =       0.50 seconds =       0.01 minutes
	total time  =          8 seconds =       0.13 minutes
Total time:
	user time   =      55.17 seconds =       0.92 minutes
	system time =       1.99 seconds =       0.03 minutes
	total time  =         30 seconds =       0.50 minutes
  Constructing Basis Sets for SAPT...

   => Loading Basis Set <=

    Name: (AUG-CC-PVDZ AUX)
    Role: RIFIT
    Keyword: DF_BASIS_SAPT
    atoms 1-2, 11-12  entry N          line   158 file /storage/home/hhive1/csargent30/data/miniconda3/envs/psi4/share/psi4/basis/aug-cc-pvdz-ri.gbs
    atoms 3-6, 13-16  entry H          line    30 file /storage/home/hhive1/csargent30/data/miniconda3/envs/psi4/share/psi4/basis/aug-cc-pvdz-ri.gbs
    atoms 7-10, 17-20 entry C          line   112 file /storage/home/hhive1/csargent30/data/miniconda3/envs/psi4/share/psi4/basis/aug-cc-pvdz-ri.gbs


  //>>>>>>>>>>>>>>>>>>>>>>>>>>>>>>>>>>>//
  //               SAPT0               //
  //<<<<<<<<<<<<<<<<<<<<<<<<<<<<<<<<<<<//


*** tstart() called on atl1-1-01-013-24-l.pace.gatech.edu
*** at Mon Nov 29 16:11:12 2021

        SAPT0
    Ed Hohenstein
     6 June 2009

      Orbital Information
  --------------------------
    NSO        =       348
    NMO        =       348
    NRI        =      1048
    NOCC A     =        21
    NOCC B     =        21
    FOCC A     =         6
    FOCC B     =         6
    NVIR A     =       327
    NVIR B     =       327

    Elst10,r            =     0.000034554189 [Eh]
    Exch10              =     0.000000000787 [Eh]
    Exch10 (S^2)        =     0.000000000787 [Eh]

    Iter     Energy [mEh]          dE [mEh]         Residual      Time [s]
       1      -0.00011272       0.000112725       0.118362267             1
       2      -0.00010146      -0.000011261       0.025282010             1
       3      -0.00011288       0.000011422       0.009393330             1
       4      -0.00011361       0.000000726       0.005418031             2
       5      -0.00011292      -0.000000696       0.001712864             2
       6      -0.00011290      -0.000000011       0.000596866             3
       7      -0.00011294       0.000000038       0.000231451             3
       8      -0.00011296       0.000000014       0.000047618             3
       9      -0.00011295      -0.000000007       0.000012798             4
      10      -0.00011295       0.000000000       0.000005905             4
      11      -0.00011295       0.000000000       0.000002229             4
      12      -0.00011295      -0.000000000       0.000000843             5

    CHF Iterations converged


    Iter     Energy [mEh]          dE [mEh]         Residual      Time [s]
       1      -0.00011272       0.000112725       0.118362268             0
       2      -0.00010146      -0.000011261       0.025282011             0
       3      -0.00011288       0.000011422       0.009393330             1
       4      -0.00011361       0.000000726       0.005418031             1
       5      -0.00011292      -0.000000696       0.001712864             2
       6      -0.00011290      -0.000000011       0.000596866             2
       7      -0.00011294       0.000000038       0.000231451             2
       8      -0.00011296       0.000000014       0.000047618             3
       9      -0.00011295      -0.000000007       0.000012798             3
      10      -0.00011295       0.000000000       0.000005905             3
      11      -0.00011295       0.000000000       0.000002229             4
      12      -0.00011295      -0.000000000       0.000000843             4

    CHF Iterations converged

    Ind20,r (A<-B)      =    -0.000000112951 [Eh]
    Ind20,r (B<-A)      =    -0.000000112951 [Eh]
    Ind20,r             =    -0.000000225901 [Eh]
    Exch-Ind20,r (A<-B) =     0.000000000865 [Eh]
    Exch-Ind20,r (B<-A) =     0.000000000865 [Eh]
    Exch-Ind20,r        =     0.000000001730 [Eh]
    Disp20              =    -0.000007018866 [Eh]
    Disp20 (SS)         =    -0.000003509433 [Eh]
    Disp20 (OS)         =    -0.000003509433 [Eh]
    Exch-Disp20         =     0.000000000142 [Eh]
    Exch-Disp20 (SS)    =     0.000000000110 [Eh]
    Exch-Disp20 (OS)    =     0.000000000032 [Eh]

    SAPT Results
  --------------------------------------------------------------------------------------------------------
    Electrostatics                  0.03455419 [mEh]       0.02168308 [kcal/mol]       0.09072201 [kJ/mol]
      Elst10,r                      0.03455419 [mEh]       0.02168308 [kcal/mol]       0.09072201 [kJ/mol]

    Exchange                        0.00000079 [mEh]       0.00000049 [kcal/mol]       0.00000207 [kJ/mol]
      Exch10                        0.00000079 [mEh]       0.00000049 [kcal/mol]       0.00000207 [kJ/mol]
      Exch10(S^2)                   0.00000079 [mEh]       0.00000049 [kcal/mol]       0.00000207 [kJ/mol]

    Induction                      -0.00028635 [mEh]      -0.00017969 [kcal/mol]      -0.00075182 [kJ/mol]
      Ind20,r                      -0.00022590 [mEh]      -0.00014176 [kcal/mol]      -0.00059310 [kJ/mol]
      Exch-Ind20,r                  0.00000173 [mEh]       0.00000109 [kcal/mol]       0.00000454 [kJ/mol]
      delta HF,r (2)               -0.00006218 [mEh]      -0.00003902 [kcal/mol]      -0.00016326 [kJ/mol]

    Dispersion                     -0.00701872 [mEh]      -0.00440432 [kcal/mol]      -0.01842766 [kJ/mol]
      Disp20                       -0.00701887 [mEh]      -0.00440441 [kcal/mol]      -0.01842803 [kJ/mol]
      Exch-Disp20                   0.00000014 [mEh]       0.00000009 [kcal/mol]       0.00000037 [kJ/mol]
      Disp20 (SS)                  -0.00350943 [mEh]      -0.00220220 [kcal/mol]      -0.00921402 [kJ/mol]
      Disp20 (OS)                  -0.00350943 [mEh]      -0.00220220 [kcal/mol]      -0.00921402 [kJ/mol]
      Exch-Disp20 (SS)              0.00000011 [mEh]       0.00000007 [kcal/mol]       0.00000029 [kJ/mol]
      Exch-Disp20 (OS)              0.00000003 [mEh]       0.00000002 [kcal/mol]       0.00000008 [kJ/mol]

  Total HF                          0.03426862 [mEh]       0.02150389 [kcal/mol]       0.08997226 [kJ/mol]
  Total SAPT0                       0.02724990 [mEh]       0.01709957 [kcal/mol]       0.07154460 [kJ/mol]

  Special recipe for scaled SAPT0 (see Manual):
    Electrostatics sSAPT0           0.03455419 [mEh]       0.02168308 [kcal/mol]       0.09072201 [kJ/mol]
    Exchange sSAPT0                 0.00000079 [mEh]       0.00000049 [kcal/mol]       0.00000207 [kJ/mol]
    Induction sSAPT0               -0.00028635 [mEh]      -0.00017969 [kcal/mol]      -0.00075182 [kJ/mol]
    Dispersion sSAPT0              -0.00701872 [mEh]      -0.00440432 [kcal/mol]      -0.01842766 [kJ/mol]
  Total sSAPT0                      0.02724990 [mEh]       0.01709957 [kcal/mol]       0.07154460 [kJ/mol]
  --------------------------------------------------------------------------------------------------------

*** tstop() called on atl1-1-01-013-24-l.pace.gatech.edu at Mon Nov 29 16:11:38 2021
Module time:
	user time   =      38.96 seconds =       0.65 minutes
	system time =       9.45 seconds =       0.16 minutes
	total time  =         26 seconds =       0.43 minutes
Total time:
	user time   =      94.38 seconds =       1.57 minutes
	system time =      11.45 seconds =       0.19 minutes
	total time  =         57 seconds =       0.95 minutes


Warning! sapt0 does not have an associated derived wavefunction.The returned wavefunction is the dimer SCF wavefunction.


    Psi4 stopped on: Monday, 29 November 2021 04:11PM
    Psi4 wall time for execution: 0:00:57.16

*** Psi4 exiting successfully. Buy a developer a beer!
