
    -----------------------------------------------------------------------
          Psi4: An Open-Source Ab Initio Electronic Structure Package
                               Psi4 1.4.1 release

                         Git: Rev {HEAD} cd00f19 


    D. G. A. Smith, L. A. Burns, A. C. Simmonett, R. M. Parrish,
    M. C. Schieber, R. Galvelis, P. Kraus, H. Kruse, R. Di Remigio,
    A. Alenaizan, A. M. James, S. Lehtola, J. P. Misiewicz, M. Scheurer,
    R. A. Shaw, J. B. Schriber, Y. Xie, Z. L. Glick, D. A. Sirianni,
    J. S. O'Brien, J. M. Waldrop, A. Kumar, E. G. Hohenstein,
    B. P. Pritchard, B. R. Brooks, H. F. Schaefer III, A. Yu. Sokolov,
    K. Patkowski, A. E. DePrince III, U. Bozkaya, R. A. King,
    F. A. Evangelista, J. M. Turney, T. D. Crawford, C. D. Sherrill,
    J. Chem. Phys. 152(18) 184108 (2020). https://doi.org/10.1063/5.0006002

                            Additional Code Authors
    E. T. Seidl, C. L. Janssen, E. F. Valeev, M. L. Leininger,
    J. F. Gonthier, R. M. Richard, H. R. McAlexander, M. Saitow, X. Wang,
    P. Verma, and M. H. Lechner

             Previous Authors, Complete List of Code Contributors,
                       and Citations for Specific Modules
    https://github.com/psi4/psi4/blob/master/codemeta.json
    https://github.com/psi4/psi4/graphs/contributors
    http://psicode.org/psi4manual/master/introduction.html#citing-psifour

    -----------------------------------------------------------------------


    Psi4 started on: Monday, 29 November 2021 04:11PM

    Process ID: 322686
    Host:       atl1-1-01-013-10-r.pace.gatech.edu
    PSIDATADIR: /storage/home/hhive1/csargent30/data/miniconda3/envs/psi4/share/psi4
    Memory:     500.0 MiB
    Threads:    2
    
  ==> Input File <==

--------------------------------------------------------------------------
# PSI4 file produced by CrystaLattE

# Generated from:               pyrazine.xyz
# Psithon input for N-mer:      2mer-0+112
# Number of atoms per monomer:  [10, 10]
# Number of replicas:           4
# COM priority:                 4.041008689465e-05
# Minimum COM separations:      15.421 
# Separation priority:          8.840162712742e-05
# Minimum monomer separations:  11.879 
# Cutoff priority:              3.938042012064e-06
# Nuclear repulsion energy:     485.68556611807765

memory 7 GB

molecule Dimer_0_112 {
  N           -1.33084758       0.98032658       0.42627037 
  N            3.95377333       0.98032658       0.42627037 
  H            3.56713674       4.35218569      -0.94230973 
  H           -0.94421098       4.35218569      -0.94230973 
  H           -0.94421098      -2.39153253       1.79485047 
  H            3.56713674      -2.39153253       1.79485047 
  C            2.62292576       2.94097974      -0.42627037 
  C            0.00000000       2.94097974      -0.42627037 
  C            0.00000000      -0.98032658       1.27881112 
  C            2.62292576      -0.98032658       1.27881112 
--
  N          -18.95329959     -21.13022498      -6.62826622 
  N          -13.66867868     -21.13022498      -6.62826622 
  H          -14.05531527     -17.75836587      -7.99684633 
  H          -18.56666299     -17.75836587      -7.99684633 
  H          -18.56666299     -24.50208409      -5.25968612 
  H          -14.05531527     -24.50208409      -5.25968612 
  C          -14.99952625     -19.16957182      -7.48080697 
  C          -17.62245201     -19.16957182      -7.48080697 
  C          -17.62245201     -23.09087814      -5.77572548 
  C          -14.99952625     -23.09087814      -5.77572548 
units = au
no_com
no_reorient
}

set {
  e_convergence 10
  d_convergence 10
  scf_type df
  mp2_type df
  cc_type df
  freeze_core true
}

energy('sapt0/aug-cc-pvdz')

--------------------------------------------------------------------------

  Memory set to   6.519 GiB by Python driver.

Scratch directory: /tmp/

Scratch directory: /tmp/

  //>>>>>>>>>>>>>>>>>>>>>>>>>>>>>>>>>>>//
  //              Dimer HF             //
  //<<<<<<<<<<<<<<<<<<<<<<<<<<<<<<<<<<<//


*** tstart() called on atl1-1-01-013-10-r.pace.gatech.edu
*** at Mon Nov 29 16:11:14 2021

   => Loading Basis Set <=

    Name: AUG-CC-PVDZ
    Role: ORBITAL
    Keyword: BASIS
    atoms 1-2, 11-12  entry N          line   218 file /storage/home/hhive1/csargent30/data/miniconda3/envs/psi4/share/psi4/basis/aug-cc-pvdz.gbs 
    atoms 3-6, 13-16  entry H          line    40 file /storage/home/hhive1/csargent30/data/miniconda3/envs/psi4/share/psi4/basis/aug-cc-pvdz.gbs 
    atoms 7-10, 17-20 entry C          line   182 file /storage/home/hhive1/csargent30/data/miniconda3/envs/psi4/share/psi4/basis/aug-cc-pvdz.gbs 


         ---------------------------------------------------------
                                   SCF
               by Justin Turney, Rob Parrish, Andy Simmonett
                          and Daniel G. A. Smith
                              RHF Reference
                        2 Threads,   6675 MiB Core
         ---------------------------------------------------------

  ==> Geometry <==

    Molecular point group: c1
    Full point group: C1

    Geometry (in Bohr), charge = 0, multiplicity = 1:

       Center              X                  Y                   Z               Mass       
    ------------   -----------------  -----------------  -----------------  -----------------
         N           -1.330847580000     0.980326580000     0.426270370000    14.003074004430
         N            3.953773330000     0.980326580000     0.426270370000    14.003074004430
         H            3.567136740000     4.352185690000    -0.942309730000     1.007825032230
         H           -0.944210980000     4.352185690000    -0.942309730000     1.007825032230
         H           -0.944210980000    -2.391532530000     1.794850470000     1.007825032230
         H            3.567136740000    -2.391532530000     1.794850470000     1.007825032230
         C            2.622925760000     2.940979740000    -0.426270370000    12.000000000000
         C            0.000000000000     2.940979740000    -0.426270370000    12.000000000000
         C            0.000000000000    -0.980326580000     1.278811120000    12.000000000000
         C            2.622925760000    -0.980326580000     1.278811120000    12.000000000000
         N          -18.953299590000   -21.130224980000    -6.628266220000    14.003074004430
         N          -13.668678680000   -21.130224980000    -6.628266220000    14.003074004430
         H          -14.055315270000   -17.758365870000    -7.996846330000     1.007825032230
         H          -18.566662990000   -17.758365870000    -7.996846330000     1.007825032230
         H          -18.566662990000   -24.502084090000    -5.259686120000     1.007825032230
         H          -14.055315270000   -24.502084090000    -5.259686120000     1.007825032230
         C          -14.999526250000   -19.169571820000    -7.480806970000    12.000000000000
         C          -17.622452010000   -19.169571820000    -7.480806970000    12.000000000000
         C          -17.622452010000   -23.090878140000    -5.775725480000    12.000000000000
         C          -14.999526250000   -23.090878140000    -5.775725480000    12.000000000000

  Running in c1 symmetry.

  Rotational constants: A =      0.08098  B =      0.00098  C =      0.00097 [cm^-1]
  Rotational constants: A =   2427.83627  B =     29.42662  C =     29.22096 [MHz]
  Nuclear repulsion =  485.685566095054583

  Charge       = 0
  Multiplicity = 1
  Electrons    = 84
  Nalpha       = 42
  Nbeta        = 42

  ==> Algorithm <==

  SCF Algorithm Type is DF.
  DIIS enabled.
  MOM disabled.
  Fractional occupation disabled.
  Guess Type is SAD.
  Energy threshold   = 1.00e-10
  Density threshold  = 1.00e-10
  Integral threshold = 1.00e-12

  ==> Primary Basis <==

  Basis Set: AUG-CC-PVDZ
    Blend: AUG-CC-PVDZ
    Number of shells: 148
    Number of basis functions: 348
    Number of Cartesian functions: 372
    Spherical Harmonics?: true
    Max angular momentum: 2

   => Loading Basis Set <=

    Name: (AUG-CC-PVDZ AUX)
    Role: JKFIT
    Keyword: DF_BASIS_SCF
    atoms 1-2, 11-12  entry N          line   212 file /storage/home/hhive1/csargent30/data/miniconda3/envs/psi4/share/psi4/basis/aug-cc-pvdz-jkfit.gbs 
    atoms 3-6, 13-16  entry H          line    70 file /storage/home/hhive1/csargent30/data/miniconda3/envs/psi4/share/psi4/basis/aug-cc-pvdz-jkfit.gbs 
    atoms 7-10, 17-20 entry C          line   154 file /storage/home/hhive1/csargent30/data/miniconda3/envs/psi4/share/psi4/basis/aug-cc-pvdz-jkfit.gbs 

  ==> Integral Setup <==

  ==> DiskDFJK: Density-Fitted J/K Matrices <==

    J tasked:                  Yes
    K tasked:                  Yes
    wK tasked:                  No
    OpenMP threads:              2
    Integrals threads:           2
    Memory [MiB]:             5006
    Algorithm:                Core
    Integral Cache:           SAVE
    Schwarz Cutoff:          1E-12
    Fitting Condition:       1E-10

   => Auxiliary Basis Set <=

  Basis Set: (AUG-CC-PVDZ AUX)
    Blend: AUG-CC-PVDZ-JKFIT
    Number of shells: 432
    Number of basis functions: 1288
    Number of Cartesian functions: 1492
    Spherical Harmonics?: true
    Max angular momentum: 3

  Minimum eigenvalue in the overlap matrix is 9.4218610466E-06.
  Reciprocal condition number of the overlap matrix is 7.3487330789E-07.
    Using symmetric orthogonalization.

  ==> Pre-Iterations <==

  SCF Guess: Superposition of Atomic Densities via on-the-fly atomic UHF (no occupation information).

   -------------------------
    Irrep   Nso     Nmo    
   -------------------------
     A        348     348 
   -------------------------
    Total     348     348
   -------------------------

  ==> Iterations <==

                           Total Energy        Delta E     RMS |[F,P]|

   @DF-RHF iter SAD:  -524.65046252247760   -5.24650e+02   0.00000e+00 
   @DF-RHF iter   1:  -525.07883102111953   -4.28368e-01   1.58369e-03 DIIS
   @DF-RHF iter   2:  -525.25759121459623   -1.78760e-01   5.80733e-04 DIIS
   @DF-RHF iter   3:  -525.27725858991471   -1.96674e-02   1.81358e-04 DIIS
   @DF-RHF iter   4:  -525.27970788637833   -2.44930e-03   5.33964e-05 DIIS
   @DF-RHF iter   5:  -525.27988706129929   -1.79175e-04   1.06848e-05 DIIS
   @DF-RHF iter   6:  -525.27990016055958   -1.30993e-05   3.46823e-06 DIIS
   @DF-RHF iter   7:  -525.27990206483378   -1.90427e-06   9.05314e-07 DIIS
   @DF-RHF iter   8:  -525.27990221252492   -1.47691e-07   1.43243e-07 DIIS
   @DF-RHF iter   9:  -525.27990221647099   -3.94607e-09   4.45188e-08 DIIS
   @DF-RHF iter  10:  -525.27990221666062   -1.89630e-10   2.07382e-08 DIIS
   @DF-RHF iter  11:  -525.27990221670109   -4.04725e-11   2.80178e-09 DIIS
   @DF-RHF iter  12:  -525.27990221670348   -2.38742e-12   9.87624e-10 DIIS
   @DF-RHF iter  13:  -525.27990221670416   -6.82121e-13   3.62734e-10 DIIS
   @DF-RHF iter  14:  -525.27990221670314    1.02318e-12   7.86707e-11 DIIS
  Energy and wave function converged.


  ==> Post-Iterations <==

    Orbital Energies [Eh]
    ---------------------

    Doubly Occupied:                                                      

       1A    -15.598094     2A    -15.598094     3A    -15.598066  
       4A    -15.598066     5A    -11.274254     6A    -11.274254  
       7A    -11.274207     8A    -11.274207     9A    -11.272993  
      10A    -11.272993    11A    -11.272978    12A    -11.272978  
      13A     -1.313363    14A     -1.313363    15A     -1.224193  
      16A     -1.224193    17A     -1.076817    18A     -1.076817  
      19A     -0.922677    20A     -0.922677    21A     -0.919295  
      22A     -0.919295    23A     -0.760652    24A     -0.760652  
      25A     -0.738413    26A     -0.738413    27A     -0.706229  
      28A     -0.706229    29A     -0.647700    30A     -0.647700  
      31A     -0.580724    32A     -0.580724    33A     -0.574386  
      34A     -0.574386    35A     -0.497133    36A     -0.497133  
      37A     -0.434307    38A     -0.434307    39A     -0.415874  
      40A     -0.415874    41A     -0.359937    42A     -0.359937  

    Virtual:                                                              

      43A      0.034235    44A      0.034688    45A      0.040333  
      46A      0.041086    47A      0.047484    48A      0.049164  
      49A      0.057584    50A      0.059820    51A      0.067099  
      52A      0.067107    53A      0.099376    54A      0.099431  
      55A      0.100938    56A      0.100947    57A      0.114169  
      58A      0.114190    59A      0.114826    60A      0.114979  
      61A      0.123024    62A      0.124407    63A      0.125295  
      64A      0.125318    65A      0.128515    66A      0.128844  
      67A      0.132881    68A      0.132892    69A      0.156685  
      70A      0.158619    71A      0.159896    72A      0.161065  
      73A      0.161318    74A      0.162159    75A      0.163251  
      76A      0.166147    77A      0.174536    78A      0.176528  
      79A      0.186893    80A      0.186961    81A      0.203901  
      82A      0.203915    83A      0.212482    84A      0.212543  
      85A      0.250488    86A      0.250503    87A      0.267718  
      88A      0.267737    89A      0.277759    90A      0.278352  
      91A      0.287735    92A      0.287815    93A      0.293174  
      94A      0.293211    95A      0.295300    96A      0.296343  
      97A      0.314758    98A      0.314915    99A      0.320423  
     100A      0.320478   101A      0.355068   102A      0.355844  
     103A      0.357898   104A      0.357904   105A      0.364644  
     106A      0.364646   107A      0.382216   108A      0.382984  
     109A      0.398618   110A      0.399203   111A      0.409646  
     112A      0.410156   113A      0.424716   114A      0.426299  
     115A      0.433912   116A      0.433939   117A      0.436770  
     118A      0.437881   119A      0.451840   120A      0.452417  
     121A      0.471428   122A      0.471521   123A      0.492112  
     124A      0.492153   125A      0.504849   126A      0.504877  
     127A      0.514891   128A      0.514919   129A      0.524498  
     130A      0.524579   131A      0.528447   132A      0.528927  
     133A      0.554561   134A      0.554572   135A      0.570508  
     136A      0.570548   137A      0.587513   138A      0.587528  
     139A      0.591422   140A      0.591563   141A      0.593758  
     142A      0.593816   143A      0.608880   144A      0.608965  
     145A      0.643444   146A      0.643521   147A      0.644202  
     148A      0.644498   149A      0.685069   150A      0.685171  
     151A      0.687741   152A      0.687747   153A      0.689850  
     154A      0.689938   155A      0.690142   156A      0.690654  
     157A      0.694814   158A      0.694840   159A      0.703708  
     160A      0.704006   161A      0.746412   162A      0.746733  
     163A      0.754810   164A      0.754810   165A      0.766940  
     166A      0.766954   167A      0.781359   168A      0.781426  
     169A      0.799628   170A      0.800023   171A      0.802699  
     172A      0.802709   173A      0.818977   174A      0.819022  
     175A      0.831054   176A      0.831054   177A      0.847248  
     178A      0.847803   179A      0.880532   180A      0.880534  
     181A      0.886382   182A      0.886419   183A      0.894667  
     184A      0.894672   185A      0.929205   186A      0.929328  
     187A      0.939362   188A      0.939560   189A      0.949212  
     190A      0.949396   191A      0.996543   192A      0.996744  
     193A      0.998880   194A      0.998892   195A      1.012994  
     196A      1.012994   197A      1.032975   198A      1.033816  
     199A      1.051176   200A      1.051186   201A      1.089353  
     202A      1.089369   203A      1.100423   204A      1.100431  
     205A      1.121984   206A      1.122407   207A      1.123979  
     208A      1.124108   209A      1.134280   210A      1.134438  
     211A      1.158623   212A      1.158860   213A      1.173536  
     214A      1.173566   215A      1.235345   216A      1.235465  
     217A      1.238757   218A      1.238838   219A      1.309639  
     220A      1.309688   221A      1.331078   222A      1.331197  
     223A      1.414242   224A      1.414303   225A      1.451465  
     226A      1.451556   227A      1.486098   228A      1.486136  
     229A      1.488033   230A      1.488082   231A      1.498921  
     232A      1.499498   233A      1.502730   234A      1.502965  
     235A      1.518180   236A      1.518325   237A      1.572659  
     238A      1.572683   239A      1.574080   240A      1.574295  
     241A      1.587679   242A      1.587993   243A      1.635908  
     244A      1.636039   245A      1.640483   246A      1.640504  
     247A      1.647919   248A      1.648555   249A      1.676536  
     250A      1.676546   251A      1.716972   252A      1.716974  
     253A      1.746582   254A      1.746586   255A      1.755089  
     256A      1.755094   257A      1.783617   258A      1.783901  
     259A      1.815715   260A      1.815715   261A      1.893308  
     262A      1.893315   263A      1.916122   264A      1.916126  
     265A      1.964816   266A      1.964817   267A      1.987653  
     268A      1.987664   269A      2.031175   270A      2.031206  
     271A      2.091516   272A      2.091557   273A      2.100766  
     274A      2.101305   275A      2.142916   276A      2.142966  
     277A      2.163335   278A      2.163348   279A      2.190469  
     280A      2.190484   281A      2.192940   282A      2.193701  
     283A      2.200329   284A      2.200419   285A      2.202395  
     286A      2.202406   287A      2.227537   288A      2.227699  
     289A      2.312719   290A      2.312778   291A      2.355119  
     292A      2.355333   293A      2.430938   294A      2.430941  
     295A      2.438963   296A      2.438964   297A      2.519340  
     298A      2.519396   299A      2.522382   300A      2.522383  
     301A      2.584739   302A      2.584754   303A      2.606248  
     304A      2.606249   305A      2.665210   306A      2.665211  
     307A      2.675389   308A      2.675391   309A      2.686315  
     310A      2.686449   311A      2.713832   312A      2.714129  
     313A      2.718498   314A      2.718682   315A      2.843996  
     316A      2.843997   317A      2.865742   318A      2.865745  
     319A      2.939164   320A      2.939200   321A      3.001825  
     322A      3.001863   323A      3.017843   324A      3.017869  
     325A      3.032129   326A      3.032211   327A      3.094115  
     328A      3.094139   329A      3.219426   330A      3.221342  
     331A      3.255967   332A      3.255967   333A      3.284781  
     334A      3.284962   335A      3.366101   336A      3.366152  
     337A      3.413344   338A      3.413370   339A      3.514870  
     340A      3.514946   341A      3.590620   342A      3.590667  
     343A      3.627734   344A      3.627776   345A      3.977036  
     346A      3.977447   347A      4.253470   348A      4.253472  

    Final Occupation by Irrep:
              A 
    DOCC [    42 ]

  @DF-RHF Final Energy:  -525.27990221670314

   => Energetics <=

    Nuclear Repulsion Energy =            485.6855660950545825
    One-Electron Energy =               -1672.0817663835669009
    Two-Electron Energy =                 661.1162980718091831
    Total Energy =                       -525.2799022167031353

Computation Completed


Properties will be evaluated at   0.000000,   0.000000,   0.000000 [a0]

Properties computed using the SCF density matrix

  Nuclear Dipole Moment: [e a0]
     X:  -629.9801      Y:  -846.2957      Z:  -260.4838

  Electronic Dipole Moment: [e a0]
     X:   629.9801      Y:   846.2957      Z:   260.4838

  Dipole Moment: [e a0]
     X:     0.0000      Y:    -0.0000      Z:    -0.0000     Total:     0.0000

  Dipole Moment: [D]
     X:     0.0000      Y:    -0.0000      Z:    -0.0000     Total:     0.0000


*** tstop() called on atl1-1-01-013-10-r.pace.gatech.edu at Mon Nov 29 16:11:28 2021
Module time:
	user time   =      26.99 seconds =       0.45 minutes
	system time =       0.99 seconds =       0.02 minutes
	total time  =         14 seconds =       0.23 minutes
Total time:
	user time   =      26.99 seconds =       0.45 minutes
	system time =       0.99 seconds =       0.02 minutes
	total time  =         14 seconds =       0.23 minutes

  //>>>>>>>>>>>>>>>>>>>>>>>>>>>>>>>>>>>//
  //            Monomer A HF           //
  //<<<<<<<<<<<<<<<<<<<<<<<<<<<<<<<<<<<//


*** tstart() called on atl1-1-01-013-10-r.pace.gatech.edu
*** at Mon Nov 29 16:11:28 2021

   => Loading Basis Set <=

    Name: AUG-CC-PVDZ
    Role: ORBITAL
    Keyword: BASIS
    atoms 1-2, 11-12  entry N          line   218 file /storage/home/hhive1/csargent30/data/miniconda3/envs/psi4/share/psi4/basis/aug-cc-pvdz.gbs 
    atoms 3-6, 13-16  entry H          line    40 file /storage/home/hhive1/csargent30/data/miniconda3/envs/psi4/share/psi4/basis/aug-cc-pvdz.gbs 
    atoms 7-10, 17-20 entry C          line   182 file /storage/home/hhive1/csargent30/data/miniconda3/envs/psi4/share/psi4/basis/aug-cc-pvdz.gbs 


         ---------------------------------------------------------
                                   SCF
               by Justin Turney, Rob Parrish, Andy Simmonett
                          and Daniel G. A. Smith
                              RHF Reference
                        2 Threads,   6675 MiB Core
         ---------------------------------------------------------

  ==> Geometry <==

    Molecular point group: c1
    Full point group: C1

    Geometry (in Bohr), charge = 0, multiplicity = 1:

       Center              X                  Y                   Z               Mass       
    ------------   -----------------  -----------------  -----------------  -----------------
         N           -1.330847580000     0.980326580000     0.426270370000    14.003074004430
         N            3.953773330000     0.980326580000     0.426270370000    14.003074004430
         H            3.567136740000     4.352185690000    -0.942309730000     1.007825032230
         H           -0.944210980000     4.352185690000    -0.942309730000     1.007825032230
         H           -0.944210980000    -2.391532530000     1.794850470000     1.007825032230
         H            3.567136740000    -2.391532530000     1.794850470000     1.007825032230
         C            2.622925760000     2.940979740000    -0.426270370000    12.000000000000
         C            0.000000000000     2.940979740000    -0.426270370000    12.000000000000
         C            0.000000000000    -0.980326580000     1.278811120000    12.000000000000
         C            2.622925760000    -0.980326580000     1.278811120000    12.000000000000
      Gh(N)         -18.953299590000   -21.130224980000    -6.628266220000    14.003074004430
      Gh(N)         -13.668678680000   -21.130224980000    -6.628266220000    14.003074004430
      Gh(H)         -14.055315270000   -17.758365870000    -7.996846330000     1.007825032230
      Gh(H)         -18.566662990000   -17.758365870000    -7.996846330000     1.007825032230
      Gh(H)         -18.566662990000   -24.502084090000    -5.259686120000     1.007825032230
      Gh(H)         -14.055315270000   -24.502084090000    -5.259686120000     1.007825032230
      Gh(C)         -14.999526250000   -19.169571820000    -7.480806970000    12.000000000000
      Gh(C)         -17.622452010000   -19.169571820000    -7.480806970000    12.000000000000
      Gh(C)         -17.622452010000   -23.090878140000    -5.775725480000    12.000000000000
      Gh(C)         -14.999526250000   -23.090878140000    -5.775725480000    12.000000000000

  Running in c1 symmetry.

  Rotational constants: A =      0.08098  B =      0.00098  C =      0.00097 [cm^-1]
  Rotational constants: A =   2427.83627  B =     29.42662  C =     29.22096 [MHz]
  Nuclear repulsion =  212.551731110485349

  Charge       = 0
  Multiplicity = 1
  Electrons    = 42
  Nalpha       = 21
  Nbeta        = 21

  ==> Algorithm <==

  SCF Algorithm Type is DF.
  DIIS enabled.
  MOM disabled.
  Fractional occupation disabled.
  Guess Type is SAD.
  Energy threshold   = 1.00e-10
  Density threshold  = 1.00e-10
  Integral threshold = 1.00e-12

  ==> Primary Basis <==

  Basis Set: AUG-CC-PVDZ
    Blend: AUG-CC-PVDZ
    Number of shells: 148
    Number of basis functions: 348
    Number of Cartesian functions: 372
    Spherical Harmonics?: true
    Max angular momentum: 2

   => Loading Basis Set <=

    Name: (AUG-CC-PVDZ AUX)
    Role: JKFIT
    Keyword: DF_BASIS_SCF
    atoms 1-2, 11-12  entry N          line   212 file /storage/home/hhive1/csargent30/data/miniconda3/envs/psi4/share/psi4/basis/aug-cc-pvdz-jkfit.gbs 
    atoms 3-6, 13-16  entry H          line    70 file /storage/home/hhive1/csargent30/data/miniconda3/envs/psi4/share/psi4/basis/aug-cc-pvdz-jkfit.gbs 
    atoms 7-10, 17-20 entry C          line   154 file /storage/home/hhive1/csargent30/data/miniconda3/envs/psi4/share/psi4/basis/aug-cc-pvdz-jkfit.gbs 

  ==> Integral Setup <==

  ==> DiskDFJK: Density-Fitted J/K Matrices <==

    J tasked:                  Yes
    K tasked:                  Yes
    wK tasked:                  No
    OpenMP threads:              2
    Integrals threads:           2
    Memory [MiB]:             5006
    Algorithm:                Core
    Integral Cache:           LOAD
    Schwarz Cutoff:          1E-12
    Fitting Condition:       1E-10

   => Auxiliary Basis Set <=

  Basis Set: (AUG-CC-PVDZ AUX)
    Blend: AUG-CC-PVDZ-JKFIT
    Number of shells: 432
    Number of basis functions: 1288
    Number of Cartesian functions: 1492
    Spherical Harmonics?: true
    Max angular momentum: 3

  Minimum eigenvalue in the overlap matrix is 9.4218610466E-06.
  Reciprocal condition number of the overlap matrix is 7.3487330789E-07.
    Using symmetric orthogonalization.

  ==> Pre-Iterations <==

  SCF Guess: Superposition of Atomic Densities via on-the-fly atomic UHF (no occupation information).

   -------------------------
    Irrep   Nso     Nmo    
   -------------------------
     A        348     348 
   -------------------------
    Total     348     348
   -------------------------

  ==> Iterations <==

                           Total Energy        Delta E     RMS |[F,P]|

   @DF-RHF iter SAD:  -262.32523126127262   -2.62325e+02   0.00000e+00 
   @DF-RHF iter   1:  -262.53940800837000   -2.14177e-01   1.11985e-03 DIIS
   @DF-RHF iter   2:  -262.62878840897906   -8.93804e-02   4.10664e-04 DIIS
   @DF-RHF iter   3:  -262.63862295418335   -9.83455e-03   1.28248e-04 DIIS
   @DF-RHF iter   4:  -262.63984770732719   -1.22475e-03   3.77599e-05 DIIS
   @DF-RHF iter   5:  -262.63993730779589   -8.96005e-05   7.55558e-06 DIIS
   @DF-RHF iter   6:  -262.63994385805756   -6.55026e-06   2.45264e-06 DIIS
   @DF-RHF iter   7:  -262.63994481042999   -9.52372e-07   6.40130e-07 DIIS
   @DF-RHF iter   8:  -262.63994488431865   -7.38887e-08   9.91693e-08 DIIS
   @DF-RHF iter   9:  -262.63994488630391   -1.98526e-09   1.88228e-08 DIIS
   @DF-RHF iter  10:  -262.63994488637530   -7.13953e-11   3.19151e-09 DIIS
   @DF-RHF iter  11:  -262.63994488637763   -2.33058e-12   5.22331e-10 DIIS
   @DF-RHF iter  12:  -262.63994488637695    6.82121e-13   9.55742e-11 DIIS
  Energy and wave function converged.


  ==> Post-Iterations <==

    Orbital Energies [Eh]
    ---------------------

    Doubly Occupied:                                                      

       1A    -15.598072     2A    -15.598053     3A    -11.274239  
       4A    -11.274194     5A    -11.272975     6A    -11.272969  
       7A     -1.313347     8A     -1.224176     9A     -1.076803  
      10A     -0.922662    11A     -0.919282    12A     -0.760637  
      13A     -0.738402    14A     -0.706214    15A     -0.647687  
      16A     -0.580711    17A     -0.574369    18A     -0.497113  
      19A     -0.434288    20A     -0.415855    21A     -0.359924  

    Virtual:                                                              

      22A      0.022339    23A      0.034441    24A      0.039316  
      25A      0.040438    26A      0.041358    27A      0.048368  
      28A      0.057644    29A      0.059832    30A      0.067114  
      31A      0.079595    32A      0.084996    33A      0.099408  
      34A      0.100947    35A      0.103872    36A      0.108393  
      37A      0.108745    38A      0.114202    39A      0.114959  
      40A      0.122392    41A      0.123568    42A      0.125319  
      43A      0.125733    44A      0.128697    45A      0.130863  
      46A      0.132890    47A      0.134077    48A      0.151623  
      49A      0.152837    50A      0.158324    51A      0.159193  
      52A      0.161145    53A      0.161625    54A      0.164200  
      55A      0.175089    56A      0.176977    57A      0.186916  
      58A      0.197871    59A      0.203835    60A      0.203958  
      61A      0.206570    62A      0.212541    63A      0.222353  
      64A      0.233591    65A      0.239338    66A      0.250519  
      67A      0.255129    68A      0.267747    69A      0.270725  
      70A      0.278121    71A      0.287826    72A      0.293207  
      73A      0.295817    74A      0.302292    75A      0.314834  
      76A      0.320392    77A      0.320647    78A      0.328128  
      79A      0.331232    80A      0.344044    81A      0.355494  
      82A      0.357908    83A      0.364661    84A      0.380357  
      85A      0.382721    86A      0.385551    87A      0.398918  
      88A      0.401193    89A      0.409923    90A      0.419184  
      91A      0.424832    92A      0.425587    93A      0.433929  
      94A      0.437265    95A      0.441847    96A      0.452110  
      97A      0.460568    98A      0.461043    99A      0.471484  
     100A      0.476012   101A      0.478771   102A      0.492142  
     103A      0.504860   104A      0.507775   105A      0.514915  
     106A      0.523676   107A      0.524575   108A      0.528704  
     109A      0.535657   110A      0.554578   111A      0.557754  
     112A      0.561434   113A      0.564409   114A      0.570535  
     115A      0.581945   116A      0.587537   117A      0.591522  
     118A      0.593807   119A      0.595924   120A      0.608935  
     121A      0.615049   122A      0.620073   123A      0.636272  
     124A      0.643523   125A      0.644340   126A      0.649271  
     127A      0.651402   128A      0.679328   129A      0.685045  
     130A      0.685342   131A      0.687759   132A      0.689937  
     133A      0.690401   134A      0.694832   135A      0.703860  
     136A      0.719830   137A      0.728313   138A      0.746440  
     139A      0.746860   140A      0.754817   141A      0.766966  
     142A      0.775593   143A      0.781413   144A      0.793546  
     145A      0.799831   146A      0.802713   147A      0.811024  
     148A      0.811907   149A      0.819019   150A      0.824659  
     151A      0.831071   152A      0.847520   153A      0.847968  
     154A      0.849127   155A      0.868519   156A      0.880544  
     157A      0.886412   158A      0.888061   159A      0.894683  
     160A      0.906016   161A      0.928985   162A      0.929337  
     163A      0.939482   164A      0.947602   165A      0.949319  
     166A      0.970694   167A      0.976838   168A      0.986540  
     169A      0.996661   170A      0.998908   171A      1.013015  
     172A      1.032321   173A      1.033419   174A      1.046840  
     175A      1.051194   176A      1.076188   177A      1.089381  
     178A      1.090182   179A      1.100445   180A      1.122198  
     181A      1.124041   182A      1.130642   183A      1.134383  
     184A      1.140173   185A      1.158754   186A      1.168506  
     187A      1.170588   188A      1.173566   189A      1.192156  
     190A      1.193152   191A      1.200375   192A      1.222236  
     193A      1.235423   194A      1.238809   195A      1.250931  
     196A      1.307462   197A      1.309677   198A      1.318163  
     199A      1.326326   200A      1.329513   201A      1.331155  
     202A      1.346712   203A      1.389143   204A      1.414285  
     205A      1.448291   206A      1.451530   207A      1.455363  
     208A      1.479046   209A      1.486138   210A      1.487113  
     211A      1.488076   212A      1.499239   213A      1.502857  
     214A      1.518260   215A      1.572687   216A      1.574201  
     217A      1.587849   218A      1.635987   219A      1.640505  
     220A      1.648247   221A      1.659152   222A      1.676553  
     223A      1.697973   224A      1.716991   225A      1.746598  
     226A      1.755104   227A      1.783774   228A      1.815727  
     229A      1.893324   230A      1.916137   231A      1.964829  
     232A      1.987675   233A      2.031203   234A      2.070144  
     235A      2.091550   236A      2.101049   237A      2.102677  
     238A      2.119360   239A      2.142956   240A      2.156593  
     241A      2.159108   242A      2.163356   243A      2.190489  
     244A      2.193326   245A      2.194780   246A      2.200383  
     247A      2.202411   248A      2.227631   249A      2.234689  
     250A      2.241127   251A      2.249577   252A      2.309933  
     253A      2.312763   254A      2.319467   255A      2.355236  
     256A      2.384734   257A      2.419134   258A      2.430957  
     259A      2.435328   260A      2.438083   261A      2.438982  
     262A      2.472590   263A      2.486647   264A      2.498238  
     265A      2.519380   266A      2.522395   267A      2.524992  
     268A      2.545914   269A      2.568262   270A      2.584767  
     271A      2.592304   272A      2.606266   273A      2.625894  
     274A      2.665224   275A      2.675409   276A      2.686400  
     277A      2.713991   278A      2.716826   279A      2.718607  
     280A      2.726562   281A      2.767847   282A      2.844014  
     283A      2.865761   284A      2.903962   285A      2.939197  
     286A      2.947139   287A      2.955662   288A      2.973251  
     289A      3.001858   290A      3.017873   291A      3.032187  
     292A      3.058243   293A      3.065163   294A      3.094139  
     295A      3.113822   296A      3.220406   297A      3.245643  
     298A      3.255980   299A      3.284887   300A      3.289588  
     301A      3.321876   302A      3.337647   303A      3.340404  
     304A      3.348571   305A      3.351292   306A      3.366142  
     307A      3.412543   308A      3.413369   309A      3.470712  
     310A      3.501900   311A      3.514923   312A      3.521296  
     313A      3.590656   314A      3.604374   315A      3.605590  
     316A      3.627771   317A      3.700420   318A      3.818888  
     319A      3.830625   320A      3.940905   321A      3.969039  
     322A      3.977253   323A      4.011352   324A      4.194701  
     325A      4.242262   326A      4.253486   327A      4.441934  
     328A      4.546768   329A      4.579212   330A      4.867575  
     331A      4.976086   332A      5.057796   333A      5.261656  
     334A      5.316483   335A      5.630157   336A      5.691263  
     337A      5.827086   338A      5.952579   339A      6.283779  
     340A      6.306834   341A      6.453713   342A      6.631145  
     343A     18.125662   344A     18.207925   345A     19.017566  
     346A     19.342945   347A     25.286996   348A     25.374716  

    Final Occupation by Irrep:
              A 
    DOCC [    21 ]

  @DF-RHF Final Energy:  -262.63994488637695

   => Energetics <=

    Nuclear Repulsion Energy =            212.5517311104853491
    One-Electron Energy =                -775.4594100177783957
    Two-Electron Energy =                 300.2677340209161230
    Total Energy =                       -262.6399448863769521

Computation Completed


Properties will be evaluated at   0.000000,   0.000000,   0.000000 [a0]

Properties computed using the SCF density matrix

  Nuclear Dipole Moment: [e a0]
     X:    55.0814      Y:    41.1737      Z:    17.9034

  Electronic Dipole Moment: [e a0]
     X:   -55.0814      Y:   -41.1737      Z:   -17.9034

  Dipole Moment: [e a0]
     X:    -0.0000      Y:    -0.0000      Z:    -0.0000     Total:     0.0000

  Dipole Moment: [D]
     X:    -0.0000      Y:    -0.0000      Z:    -0.0000     Total:     0.0000


*** tstop() called on atl1-1-01-013-10-r.pace.gatech.edu at Mon Nov 29 16:11:38 2021
Module time:
	user time   =      16.89 seconds =       0.28 minutes
	system time =       0.48 seconds =       0.01 minutes
	total time  =         10 seconds =       0.17 minutes
Total time:
	user time   =      43.89 seconds =       0.73 minutes
	system time =       1.47 seconds =       0.02 minutes
	total time  =         24 seconds =       0.40 minutes

  //>>>>>>>>>>>>>>>>>>>>>>>>>>>>>>>>>>>//
  //            Monomer B HF           //
  //<<<<<<<<<<<<<<<<<<<<<<<<<<<<<<<<<<<//


*** tstart() called on atl1-1-01-013-10-r.pace.gatech.edu
*** at Mon Nov 29 16:11:38 2021

   => Loading Basis Set <=

    Name: AUG-CC-PVDZ
    Role: ORBITAL
    Keyword: BASIS
    atoms 1-2, 11-12  entry N          line   218 file /storage/home/hhive1/csargent30/data/miniconda3/envs/psi4/share/psi4/basis/aug-cc-pvdz.gbs 
    atoms 3-6, 13-16  entry H          line    40 file /storage/home/hhive1/csargent30/data/miniconda3/envs/psi4/share/psi4/basis/aug-cc-pvdz.gbs 
    atoms 7-10, 17-20 entry C          line   182 file /storage/home/hhive1/csargent30/data/miniconda3/envs/psi4/share/psi4/basis/aug-cc-pvdz.gbs 


         ---------------------------------------------------------
                                   SCF
               by Justin Turney, Rob Parrish, Andy Simmonett
                          and Daniel G. A. Smith
                              RHF Reference
                        2 Threads,   6675 MiB Core
         ---------------------------------------------------------

  ==> Geometry <==

    Molecular point group: c1
    Full point group: C1

    Geometry (in Bohr), charge = 0, multiplicity = 1:

       Center              X                  Y                   Z               Mass       
    ------------   -----------------  -----------------  -----------------  -----------------
      Gh(N)          -1.330847580000     0.980326580000     0.426270370000    14.003074004430
      Gh(N)           3.953773330000     0.980326580000     0.426270370000    14.003074004430
      Gh(H)           3.567136740000     4.352185690000    -0.942309730000     1.007825032230
      Gh(H)          -0.944210980000     4.352185690000    -0.942309730000     1.007825032230
      Gh(H)          -0.944210980000    -2.391532530000     1.794850470000     1.007825032230
      Gh(H)           3.567136740000    -2.391532530000     1.794850470000     1.007825032230
      Gh(C)           2.622925760000     2.940979740000    -0.426270370000    12.000000000000
      Gh(C)           0.000000000000     2.940979740000    -0.426270370000    12.000000000000
      Gh(C)           0.000000000000    -0.980326580000     1.278811120000    12.000000000000
      Gh(C)           2.622925760000    -0.980326580000     1.278811120000    12.000000000000
         N          -18.953299590000   -21.130224980000    -6.628266220000    14.003074004430
         N          -13.668678680000   -21.130224980000    -6.628266220000    14.003074004430
         H          -14.055315270000   -17.758365870000    -7.996846330000     1.007825032230
         H          -18.566662990000   -17.758365870000    -7.996846330000     1.007825032230
         H          -18.566662990000   -24.502084090000    -5.259686120000     1.007825032230
         H          -14.055315270000   -24.502084090000    -5.259686120000     1.007825032230
         C          -14.999526250000   -19.169571820000    -7.480806970000    12.000000000000
         C          -17.622452010000   -19.169571820000    -7.480806970000    12.000000000000
         C          -17.622452010000   -23.090878140000    -5.775725480000    12.000000000000
         C          -14.999526250000   -23.090878140000    -5.775725480000    12.000000000000

  Running in c1 symmetry.

  Rotational constants: A =      0.08098  B =      0.00098  C =      0.00097 [cm^-1]
  Rotational constants: A =   2427.83627  B =     29.42662  C =     29.22096 [MHz]
  Nuclear repulsion =  212.551731091174616

  Charge       = 0
  Multiplicity = 1
  Electrons    = 42
  Nalpha       = 21
  Nbeta        = 21

  ==> Algorithm <==

  SCF Algorithm Type is DF.
  DIIS enabled.
  MOM disabled.
  Fractional occupation disabled.
  Guess Type is SAD.
  Energy threshold   = 1.00e-10
  Density threshold  = 1.00e-10
  Integral threshold = 1.00e-12

  ==> Primary Basis <==

  Basis Set: AUG-CC-PVDZ
    Blend: AUG-CC-PVDZ
    Number of shells: 148
    Number of basis functions: 348
    Number of Cartesian functions: 372
    Spherical Harmonics?: true
    Max angular momentum: 2

   => Loading Basis Set <=

    Name: (AUG-CC-PVDZ AUX)
    Role: JKFIT
    Keyword: DF_BASIS_SCF
    atoms 1-2, 11-12  entry N          line   212 file /storage/home/hhive1/csargent30/data/miniconda3/envs/psi4/share/psi4/basis/aug-cc-pvdz-jkfit.gbs 
    atoms 3-6, 13-16  entry H          line    70 file /storage/home/hhive1/csargent30/data/miniconda3/envs/psi4/share/psi4/basis/aug-cc-pvdz-jkfit.gbs 
    atoms 7-10, 17-20 entry C          line   154 file /storage/home/hhive1/csargent30/data/miniconda3/envs/psi4/share/psi4/basis/aug-cc-pvdz-jkfit.gbs 

  ==> Integral Setup <==

  ==> DiskDFJK: Density-Fitted J/K Matrices <==

    J tasked:                  Yes
    K tasked:                  Yes
    wK tasked:                  No
    OpenMP threads:              2
    Integrals threads:           2
    Memory [MiB]:             5006
    Algorithm:                Core
    Integral Cache:           LOAD
    Schwarz Cutoff:          1E-12
    Fitting Condition:       1E-10

   => Auxiliary Basis Set <=

  Basis Set: (AUG-CC-PVDZ AUX)
    Blend: AUG-CC-PVDZ-JKFIT
    Number of shells: 432
    Number of basis functions: 1288
    Number of Cartesian functions: 1492
    Spherical Harmonics?: true
    Max angular momentum: 3

  Minimum eigenvalue in the overlap matrix is 9.4218610466E-06.
  Reciprocal condition number of the overlap matrix is 7.3487330789E-07.
    Using symmetric orthogonalization.

  ==> Pre-Iterations <==

  SCF Guess: Superposition of Atomic Densities via on-the-fly atomic UHF (no occupation information).

   -------------------------
    Irrep   Nso     Nmo    
   -------------------------
     A        348     348 
   -------------------------
    Total     348     348
   -------------------------

  ==> Iterations <==

                           Total Energy        Delta E     RMS |[F,P]|

   @DF-RHF iter SAD:  -262.32523126099329   -2.62325e+02   0.00000e+00 
   @DF-RHF iter   1:  -262.53940800966427   -2.14177e-01   1.11985e-03 DIIS
   @DF-RHF iter   2:  -262.62878841028839   -8.93804e-02   4.10664e-04 DIIS
   @DF-RHF iter   3:  -262.63862295551274   -9.83455e-03   1.28248e-04 DIIS
   @DF-RHF iter   4:  -262.63984770865841   -1.22475e-03   3.77599e-05 DIIS
   @DF-RHF iter   5:  -262.63993730912699   -8.96005e-05   7.55558e-06 DIIS
   @DF-RHF iter   6:  -262.63994385938656   -6.55026e-06   2.45264e-06 DIIS
   @DF-RHF iter   7:  -262.63994481176081   -9.52374e-07   6.40130e-07 DIIS
   @DF-RHF iter   8:  -262.63994488564782   -7.38870e-08   9.91693e-08 DIIS
   @DF-RHF iter   9:  -262.63994488763484   -1.98702e-09   1.88228e-08 DIIS
   @DF-RHF iter  10:  -262.63994488770521   -7.03722e-11   3.19151e-09 DIIS
   @DF-RHF iter  11:  -262.63994488770743   -2.21689e-12   5.22344e-10 DIIS
   @DF-RHF iter  12:  -262.63994488770720    2.27374e-13   9.57072e-11 DIIS
  Energy and wave function converged.


  ==> Post-Iterations <==

    Orbital Energies [Eh]
    ---------------------

    Doubly Occupied:                                                      

       1A    -15.598072     2A    -15.598053     3A    -11.274239  
       4A    -11.274194     5A    -11.272975     6A    -11.272969  
       7A     -1.313347     8A     -1.224176     9A     -1.076803  
      10A     -0.922662    11A     -0.919282    12A     -0.760637  
      13A     -0.738402    14A     -0.706214    15A     -0.647687  
      16A     -0.580711    17A     -0.574369    18A     -0.497113  
      19A     -0.434288    20A     -0.415855    21A     -0.359924  

    Virtual:                                                              

      22A      0.022339    23A      0.034441    24A      0.039316  
      25A      0.040438    26A      0.041358    27A      0.048368  
      28A      0.057644    29A      0.059832    30A      0.067114  
      31A      0.079595    32A      0.084996    33A      0.099408  
      34A      0.100947    35A      0.103872    36A      0.108393  
      37A      0.108745    38A      0.114202    39A      0.114959  
      40A      0.122392    41A      0.123568    42A      0.125319  
      43A      0.125733    44A      0.128697    45A      0.130863  
      46A      0.132890    47A      0.134077    48A      0.151623  
      49A      0.152837    50A      0.158324    51A      0.159193  
      52A      0.161145    53A      0.161625    54A      0.164200  
      55A      0.175089    56A      0.176977    57A      0.186916  
      58A      0.197871    59A      0.203835    60A      0.203958  
      61A      0.206570    62A      0.212541    63A      0.222353  
      64A      0.233591    65A      0.239338    66A      0.250519  
      67A      0.255129    68A      0.267747    69A      0.270725  
      70A      0.278121    71A      0.287826    72A      0.293207  
      73A      0.295817    74A      0.302292    75A      0.314834  
      76A      0.320392    77A      0.320647    78A      0.328128  
      79A      0.331232    80A      0.344044    81A      0.355494  
      82A      0.357908    83A      0.364661    84A      0.380357  
      85A      0.382721    86A      0.385551    87A      0.398918  
      88A      0.401193    89A      0.409923    90A      0.419184  
      91A      0.424832    92A      0.425587    93A      0.433929  
      94A      0.437265    95A      0.441847    96A      0.452110  
      97A      0.460568    98A      0.461043    99A      0.471484  
     100A      0.476012   101A      0.478771   102A      0.492142  
     103A      0.504860   104A      0.507775   105A      0.514915  
     106A      0.523676   107A      0.524575   108A      0.528704  
     109A      0.535657   110A      0.554578   111A      0.557754  
     112A      0.561434   113A      0.564409   114A      0.570535  
     115A      0.581945   116A      0.587537   117A      0.591522  
     118A      0.593807   119A      0.595924   120A      0.608935  
     121A      0.615049   122A      0.620073   123A      0.636272  
     124A      0.643523   125A      0.644341   126A      0.649271  
     127A      0.651402   128A      0.679328   129A      0.685045  
     130A      0.685342   131A      0.687759   132A      0.689937  
     133A      0.690401   134A      0.694832   135A      0.703860  
     136A      0.719830   137A      0.728313   138A      0.746440  
     139A      0.746860   140A      0.754817   141A      0.766966  
     142A      0.775593   143A      0.781413   144A      0.793546  
     145A      0.799831   146A      0.802713   147A      0.811024  
     148A      0.811907   149A      0.819019   150A      0.824659  
     151A      0.831071   152A      0.847520   153A      0.847968  
     154A      0.849127   155A      0.868519   156A      0.880544  
     157A      0.886412   158A      0.888061   159A      0.894683  
     160A      0.906016   161A      0.928985   162A      0.929337  
     163A      0.939482   164A      0.947602   165A      0.949319  
     166A      0.970694   167A      0.976838   168A      0.986540  
     169A      0.996661   170A      0.998908   171A      1.013015  
     172A      1.032321   173A      1.033419   174A      1.046840  
     175A      1.051194   176A      1.076188   177A      1.089381  
     178A      1.090182   179A      1.100445   180A      1.122198  
     181A      1.124041   182A      1.130642   183A      1.134383  
     184A      1.140173   185A      1.158754   186A      1.168506  
     187A      1.170588   188A      1.173566   189A      1.192156  
     190A      1.193152   191A      1.200375   192A      1.222236  
     193A      1.235423   194A      1.238809   195A      1.250931  
     196A      1.307462   197A      1.309678   198A      1.318163  
     199A      1.326326   200A      1.329513   201A      1.331155  
     202A      1.346712   203A      1.389143   204A      1.414285  
     205A      1.448291   206A      1.451530   207A      1.455363  
     208A      1.479046   209A      1.486138   210A      1.487113  
     211A      1.488076   212A      1.499239   213A      1.502857  
     214A      1.518260   215A      1.572687   216A      1.574201  
     217A      1.587849   218A      1.635987   219A      1.640505  
     220A      1.648248   221A      1.659152   222A      1.676553  
     223A      1.697973   224A      1.716991   225A      1.746598  
     226A      1.755104   227A      1.783774   228A      1.815727  
     229A      1.893324   230A      1.916137   231A      1.964829  
     232A      1.987675   233A      2.031203   234A      2.070144  
     235A      2.091550   236A      2.101049   237A      2.102677  
     238A      2.119360   239A      2.142956   240A      2.156593  
     241A      2.159108   242A      2.163356   243A      2.190489  
     244A      2.193326   245A      2.194780   246A      2.200383  
     247A      2.202411   248A      2.227631   249A      2.234689  
     250A      2.241127   251A      2.249577   252A      2.309933  
     253A      2.312763   254A      2.319467   255A      2.355236  
     256A      2.384734   257A      2.419134   258A      2.430957  
     259A      2.435328   260A      2.438083   261A      2.438982  
     262A      2.472590   263A      2.486647   264A      2.498238  
     265A      2.519380   266A      2.522395   267A      2.524992  
     268A      2.545914   269A      2.568262   270A      2.584767  
     271A      2.592304   272A      2.606266   273A      2.625894  
     274A      2.665224   275A      2.675409   276A      2.686400  
     277A      2.713991   278A      2.716826   279A      2.718607  
     280A      2.726562   281A      2.767847   282A      2.844014  
     283A      2.865761   284A      2.903962   285A      2.939197  
     286A      2.947139   287A      2.955662   288A      2.973251  
     289A      3.001858   290A      3.017873   291A      3.032187  
     292A      3.058243   293A      3.065163   294A      3.094139  
     295A      3.113822   296A      3.220406   297A      3.245643  
     298A      3.255980   299A      3.284887   300A      3.289588  
     301A      3.321876   302A      3.337647   303A      3.340404  
     304A      3.348571   305A      3.351292   306A      3.366142  
     307A      3.412543   308A      3.413369   309A      3.470712  
     310A      3.501900   311A      3.514923   312A      3.521296  
     313A      3.590656   314A      3.604374   315A      3.605590  
     316A      3.627771   317A      3.700420   318A      3.818888  
     319A      3.830625   320A      3.940905   321A      3.969039  
     322A      3.977253   323A      4.011352   324A      4.194701  
     325A      4.242262   326A      4.253486   327A      4.441934  
     328A      4.546768   329A      4.579212   330A      4.867575  
     331A      4.976086   332A      5.057796   333A      5.261656  
     334A      5.316483   335A      5.630157   336A      5.691263  
     337A      5.827086   338A      5.952579   339A      6.283779  
     340A      6.306834   341A      6.453713   342A      6.631145  
     343A     18.125662   344A     18.207925   345A     19.017566  
     346A     19.342945   347A     25.286996   348A     25.374716  

    Final Occupation by Irrep:
              A 
    DOCC [    21 ]

  @DF-RHF Final Energy:  -262.63994488770720

   => Energetics <=

    Nuclear Repulsion Energy =            212.5517310911746165
    One-Electron Energy =                -775.4594099832185066
    Two-Electron Energy =                 300.2677340043367167
    Total Energy =                       -262.6399448877072018

Computation Completed


Properties will be evaluated at   0.000000,   0.000000,   0.000000 [a0]

Properties computed using the SCF density matrix

  Nuclear Dipole Moment: [e a0]
     X:  -685.0615      Y:  -887.4694      Z:  -278.3872

  Electronic Dipole Moment: [e a0]
     X:   685.0615      Y:   887.4694      Z:   278.3872

  Dipole Moment: [e a0]
     X:     0.0000      Y:     0.0000      Z:     0.0000     Total:     0.0000

  Dipole Moment: [D]
     X:     0.0000      Y:     0.0000      Z:     0.0000     Total:     0.0000


*** tstop() called on atl1-1-01-013-10-r.pace.gatech.edu at Mon Nov 29 16:11:47 2021
Module time:
	user time   =      16.43 seconds =       0.27 minutes
	system time =       0.47 seconds =       0.01 minutes
	total time  =          9 seconds =       0.15 minutes
Total time:
	user time   =      60.33 seconds =       1.01 minutes
	system time =       1.95 seconds =       0.03 minutes
	total time  =         33 seconds =       0.55 minutes
  Constructing Basis Sets for SAPT...

   => Loading Basis Set <=

    Name: (AUG-CC-PVDZ AUX)
    Role: RIFIT
    Keyword: DF_BASIS_SAPT
    atoms 1-2, 11-12  entry N          line   158 file /storage/home/hhive1/csargent30/data/miniconda3/envs/psi4/share/psi4/basis/aug-cc-pvdz-ri.gbs 
    atoms 3-6, 13-16  entry H          line    30 file /storage/home/hhive1/csargent30/data/miniconda3/envs/psi4/share/psi4/basis/aug-cc-pvdz-ri.gbs 
    atoms 7-10, 17-20 entry C          line   112 file /storage/home/hhive1/csargent30/data/miniconda3/envs/psi4/share/psi4/basis/aug-cc-pvdz-ri.gbs 


  //>>>>>>>>>>>>>>>>>>>>>>>>>>>>>>>>>>>//
  //               SAPT0               //
  //<<<<<<<<<<<<<<<<<<<<<<<<<<<<<<<<<<<//


*** tstart() called on atl1-1-01-013-10-r.pace.gatech.edu
*** at Mon Nov 29 16:11:47 2021

        SAPT0  
    Ed Hohenstein
     6 June 2009

      Orbital Information
  --------------------------
    NSO        =       348
    NMO        =       348
    NRI        =      1048
    NOCC A     =        21
    NOCC B     =        21
    FOCC A     =         6
    FOCC B     =         6
    NVIR A     =       327
    NVIR B     =       327

    Elst10,r            =    -0.000012423216 [Eh]
    Exch10              =     0.000000000089 [Eh]
    Exch10 (S^2)        =     0.000000000089 [Eh]

    Iter     Energy [mEh]          dE [mEh]         Residual      Time [s]
       1      -0.00001418       0.000014181       0.044093494             0
       2      -0.00001269      -0.000001491       0.009750835             1
       3      -0.00001412       0.000001433       0.003689672             1
       4      -0.00001425       0.000000126       0.001716949             1
       5      -0.00001420      -0.000000047       0.000920512             2
       6      -0.00001418      -0.000000024       0.000322158             2
       7      -0.00001418       0.000000006       0.000121680             2
       8      -0.00001419       0.000000003       0.000031690             3
       9      -0.00001419      -0.000000000       0.000011182             3
      10      -0.00001419      -0.000000000       0.000003661             4
      11      -0.00001419       0.000000000       0.000001602             4
      12      -0.00001419       0.000000000       0.000000534             4

    CHF Iterations converged


    Iter     Energy [mEh]          dE [mEh]         Residual      Time [s]
       1      -0.00001418       0.000014181       0.044093494             1
       2      -0.00001269      -0.000001491       0.009750835             1
       3      -0.00001412       0.000001433       0.003689672             1
       4      -0.00001425       0.000000126       0.001716949             2
       5      -0.00001420      -0.000000047       0.000920512             2
       6      -0.00001418      -0.000000024       0.000322158             2
       7      -0.00001418       0.000000006       0.000121680             3
       8      -0.00001419       0.000000003       0.000031690             3
       9      -0.00001419      -0.000000000       0.000011182             4
      10      -0.00001419      -0.000000000       0.000003661             4
      11      -0.00001419       0.000000000       0.000001602             4
      12      -0.00001419       0.000000000       0.000000534             5

    CHF Iterations converged

    Ind20,r (A<-B)      =    -0.000000014186 [Eh]
    Ind20,r (B<-A)      =    -0.000000014186 [Eh]
    Ind20,r             =    -0.000000028373 [Eh]
    Exch-Ind20,r (A<-B) =     0.000000000061 [Eh]
    Exch-Ind20,r (B<-A) =     0.000000000061 [Eh]
    Exch-Ind20,r        =     0.000000000122 [Eh]
    Disp20              =    -0.000002980438 [Eh]
    Disp20 (SS)         =    -0.000001490219 [Eh]
    Disp20 (OS)         =    -0.000001490219 [Eh]
    Exch-Disp20         =     0.000000000005 [Eh]
    Exch-Disp20 (SS)    =     0.000000000003 [Eh]
    Exch-Disp20 (OS)    =     0.000000000001 [Eh]

    SAPT Results 
  --------------------------------------------------------------------------------------------------------
    Electrostatics                 -0.01242322 [mEh]      -0.00779569 [kcal/mol]      -0.03261715 [kJ/mol]
      Elst10,r                     -0.01242322 [mEh]      -0.00779569 [kcal/mol]      -0.03261715 [kJ/mol]

    Exchange                        0.00000009 [mEh]       0.00000006 [kcal/mol]       0.00000023 [kJ/mol]
      Exch10                        0.00000009 [mEh]       0.00000006 [kcal/mol]       0.00000023 [kJ/mol]
      Exch10(S^2)                   0.00000009 [mEh]       0.00000006 [kcal/mol]       0.00000023 [kJ/mol]

    Induction                      -0.00001949 [mEh]      -0.00001223 [kcal/mol]      -0.00005118 [kJ/mol]
      Ind20,r                      -0.00002837 [mEh]      -0.00001780 [kcal/mol]      -0.00007449 [kJ/mol]
      Exch-Ind20,r                  0.00000012 [mEh]       0.00000008 [kcal/mol]       0.00000032 [kJ/mol]
      delta HF,r (2)                0.00000876 [mEh]       0.00000550 [kcal/mol]       0.00002300 [kJ/mol]

    Dispersion                     -0.00298043 [mEh]      -0.00187025 [kcal/mol]      -0.00782513 [kJ/mol]
      Disp20                       -0.00298044 [mEh]      -0.00187025 [kcal/mol]      -0.00782514 [kJ/mol]
      Exch-Disp20                   0.00000000 [mEh]       0.00000000 [kcal/mol]       0.00000001 [kJ/mol]
      Disp20 (SS)                  -0.00149022 [mEh]      -0.00093513 [kcal/mol]      -0.00391257 [kJ/mol]
      Disp20 (OS)                  -0.00149022 [mEh]      -0.00093513 [kcal/mol]      -0.00391257 [kJ/mol]
      Exch-Disp20 (SS)              0.00000000 [mEh]       0.00000000 [kcal/mol]       0.00000001 [kJ/mol]
      Exch-Disp20 (OS)              0.00000000 [mEh]       0.00000000 [kcal/mol]       0.00000000 [kJ/mol]

  Total HF                         -0.01244262 [mEh]      -0.00780786 [kcal/mol]      -0.03266809 [kJ/mol]
  Total SAPT0                      -0.01542305 [mEh]      -0.00967811 [kcal/mol]      -0.04049322 [kJ/mol]

  Special recipe for scaled SAPT0 (see Manual):
    Electrostatics sSAPT0          -0.01242322 [mEh]      -0.00779569 [kcal/mol]      -0.03261715 [kJ/mol]
    Exchange sSAPT0                 0.00000009 [mEh]       0.00000006 [kcal/mol]       0.00000023 [kJ/mol]
    Induction sSAPT0               -0.00001949 [mEh]      -0.00001223 [kcal/mol]      -0.00005118 [kJ/mol]
    Dispersion sSAPT0              -0.00298043 [mEh]      -0.00187025 [kcal/mol]      -0.00782513 [kJ/mol]
  Total sSAPT0                     -0.01542305 [mEh]      -0.00967811 [kcal/mol]      -0.04049322 [kJ/mol]
  --------------------------------------------------------------------------------------------------------

*** tstop() called on atl1-1-01-013-10-r.pace.gatech.edu at Mon Nov 29 16:12:13 2021
Module time:
	user time   =      39.77 seconds =       0.66 minutes
	system time =       9.21 seconds =       0.15 minutes
	total time  =         26 seconds =       0.43 minutes
Total time:
	user time   =     100.34 seconds =       1.67 minutes
	system time =      11.17 seconds =       0.19 minutes
	total time  =         59 seconds =       0.98 minutes


Warning! sapt0 does not have an associated derived wavefunction.The returned wavefunction is the dimer SCF wavefunction.


    Psi4 stopped on: Monday, 29 November 2021 04:12PM
    Psi4 wall time for execution: 0:00:59.76

*** Psi4 exiting successfully. Buy a developer a beer!
