
    -----------------------------------------------------------------------
          Psi4: An Open-Source Ab Initio Electronic Structure Package
                               Psi4 1.4.1 release

                         Git: Rev {HEAD} cd00f19


    D. G. A. Smith, L. A. Burns, A. C. Simmonett, R. M. Parrish,
    M. C. Schieber, R. Galvelis, P. Kraus, H. Kruse, R. Di Remigio,
    A. Alenaizan, A. M. James, S. Lehtola, J. P. Misiewicz, M. Scheurer,
    R. A. Shaw, J. B. Schriber, Y. Xie, Z. L. Glick, D. A. Sirianni,
    J. S. O'Brien, J. M. Waldrop, A. Kumar, E. G. Hohenstein,
    B. P. Pritchard, B. R. Brooks, H. F. Schaefer III, A. Yu. Sokolov,
    K. Patkowski, A. E. DePrince III, U. Bozkaya, R. A. King,
    F. A. Evangelista, J. M. Turney, T. D. Crawford, C. D. Sherrill,
    J. Chem. Phys. 152(18) 184108 (2020). https://doi.org/10.1063/5.0006002

                            Additional Code Authors
    E. T. Seidl, C. L. Janssen, E. F. Valeev, M. L. Leininger,
    J. F. Gonthier, R. M. Richard, H. R. McAlexander, M. Saitow, X. Wang,
    P. Verma, and M. H. Lechner

             Previous Authors, Complete List of Code Contributors,
                       and Citations for Specific Modules
    https://github.com/psi4/psi4/blob/master/codemeta.json
    https://github.com/psi4/psi4/graphs/contributors
    http://psicode.org/psi4manual/master/introduction.html#citing-psifour

    -----------------------------------------------------------------------


    Psi4 started on: Monday, 29 November 2021 04:10PM

    Process ID: 428580
    Host:       atl1-1-01-013-7-l.pace.gatech.edu
    PSIDATADIR: /storage/home/hhive1/csargent30/data/miniconda3/envs/psi4/share/psi4
    Memory:     500.0 MiB
    Threads:    2

  ==> Input File <==

--------------------------------------------------------------------------
# PSI4 file produced by CrystaLattE

# Generated from:               pyrazine.xyz
# Psithon input for N-mer:      2mer-0+223
# Number of atoms per monomer:  [10, 10]
# Number of replicas:           8
# COM priority:                 2.171503074859e-05
# Minimum COM separations:      18.968
# Separation priority:          3.776232018801e-05
# Minimum monomer separations:  15.773
# Cutoff priority:              1.266907460941e-06
# Nuclear repulsion energy:     474.3571240592928

memory 7 GB

molecule Dimer_0_223 {
  N           -1.33084758       0.98032658       0.42627037
  N            3.95377333       0.98032658       0.42627037
  H            3.56713674       4.35218569      -0.94230973
  H           -0.94421098       4.35218569      -0.94230973
  H           -0.94421098      -2.39153253       1.79485047
  H            3.56713674      -2.39153253       1.79485047
  C            2.62292576       2.94097974      -0.42627037
  C            0.00000000       2.94097974      -0.42627037
  C            0.00000000      -0.98032658       1.27881112
  C            2.62292576      -0.98032658       1.27881112
--
  N          -27.76452559     -15.60258709     -17.21007112
  N          -22.47990468     -15.60258709     -17.21007112
  H          -27.37788899     -18.97444620     -18.57865122
  H          -27.37788899     -12.23072798     -15.84149102
  H          -22.86654128     -18.97444620     -18.57865122
  H          -22.86654128     -12.23072798     -15.84149102
  C          -26.43367802     -17.56324025     -18.06261187
  C          -26.43367802     -13.64193393     -16.35753038
  C          -23.81075226     -17.56324025     -18.06261187
  C          -23.81075226     -13.64193393     -16.35753038
units = au
no_com
no_reorient
}

set {
  e_convergence 10
  d_convergence 10
  scf_type df
  mp2_type df
  cc_type df
  freeze_core true
}

energy('sapt0/aug-cc-pvdz')

--------------------------------------------------------------------------

  Memory set to   6.519 GiB by Python driver.

Scratch directory: /tmp/

Scratch directory: /tmp/

  //>>>>>>>>>>>>>>>>>>>>>>>>>>>>>>>>>>>//
  //              Dimer HF             //
  //<<<<<<<<<<<<<<<<<<<<<<<<<<<<<<<<<<<//


*** tstart() called on atl1-1-01-013-7-l.pace.gatech.edu
*** at Mon Nov 29 16:10:42 2021

   => Loading Basis Set <=

    Name: AUG-CC-PVDZ
    Role: ORBITAL
    Keyword: BASIS
    atoms 1-2, 11-12  entry N          line   218 file /storage/home/hhive1/csargent30/data/miniconda3/envs/psi4/share/psi4/basis/aug-cc-pvdz.gbs
    atoms 3-6, 13-16  entry H          line    40 file /storage/home/hhive1/csargent30/data/miniconda3/envs/psi4/share/psi4/basis/aug-cc-pvdz.gbs
    atoms 7-10, 17-20 entry C          line   182 file /storage/home/hhive1/csargent30/data/miniconda3/envs/psi4/share/psi4/basis/aug-cc-pvdz.gbs


         ---------------------------------------------------------
                                   SCF
               by Justin Turney, Rob Parrish, Andy Simmonett
                          and Daniel G. A. Smith
                              RHF Reference
                        2 Threads,   6675 MiB Core
         ---------------------------------------------------------

  ==> Geometry <==

    Molecular point group: c1
    Full point group: C1

    Geometry (in Bohr), charge = 0, multiplicity = 1:

       Center              X                  Y                   Z               Mass
    ------------   -----------------  -----------------  -----------------  -----------------
         N           -1.330847580000     0.980326580000     0.426270370000    14.003074004430
         N            3.953773330000     0.980326580000     0.426270370000    14.003074004430
         H            3.567136740000     4.352185690000    -0.942309730000     1.007825032230
         H           -0.944210980000     4.352185690000    -0.942309730000     1.007825032230
         H           -0.944210980000    -2.391532530000     1.794850470000     1.007825032230
         H            3.567136740000    -2.391532530000     1.794850470000     1.007825032230
         C            2.622925760000     2.940979740000    -0.426270370000    12.000000000000
         C            0.000000000000     2.940979740000    -0.426270370000    12.000000000000
         C            0.000000000000    -0.980326580000     1.278811120000    12.000000000000
         C            2.622925760000    -0.980326580000     1.278811120000    12.000000000000
         N          -27.764525590000   -15.602587090000   -17.210071120000    14.003074004430
         N          -22.479904680000   -15.602587090000   -17.210071120000    14.003074004430
         H          -27.377888990000   -18.974446200000   -18.578651220000     1.007825032230
         H          -27.377888990000   -12.230727980000   -15.841491020000     1.007825032230
         H          -22.866541280000   -18.974446200000   -18.578651220000     1.007825032230
         H          -22.866541280000   -12.230727980000   -15.841491020000     1.007825032230
         C          -26.433678020000   -17.563240250000   -18.062611870000    12.000000000000
         C          -26.433678020000   -13.641933930000   -16.357530380000    12.000000000000
         C          -23.810752260000   -17.563240250000   -18.062611870000    12.000000000000
         C          -23.810752260000   -13.641933930000   -16.357530380000    12.000000000000

  Running in c1 symmetry.

  Rotational constants: A =      0.08352  B =      0.00064  C =      0.00063 [cm^-1]
  Rotational constants: A =   2503.92126  B =     19.08297  C =     19.02575 [MHz]
  Nuclear repulsion =  474.357124088418686

  Charge       = 0
  Multiplicity = 1
  Electrons    = 84
  Nalpha       = 42
  Nbeta        = 42

  ==> Algorithm <==

  SCF Algorithm Type is DF.
  DIIS enabled.
  MOM disabled.
  Fractional occupation disabled.
  Guess Type is SAD.
  Energy threshold   = 1.00e-10
  Density threshold  = 1.00e-10
  Integral threshold = 1.00e-12

  ==> Primary Basis <==

  Basis Set: AUG-CC-PVDZ
    Blend: AUG-CC-PVDZ
    Number of shells: 148
    Number of basis functions: 348
    Number of Cartesian functions: 372
    Spherical Harmonics?: true
    Max angular momentum: 2

   => Loading Basis Set <=

    Name: (AUG-CC-PVDZ AUX)
    Role: JKFIT
    Keyword: DF_BASIS_SCF
    atoms 1-2, 11-12  entry N          line   212 file /storage/home/hhive1/csargent30/data/miniconda3/envs/psi4/share/psi4/basis/aug-cc-pvdz-jkfit.gbs
    atoms 3-6, 13-16  entry H          line    70 file /storage/home/hhive1/csargent30/data/miniconda3/envs/psi4/share/psi4/basis/aug-cc-pvdz-jkfit.gbs
    atoms 7-10, 17-20 entry C          line   154 file /storage/home/hhive1/csargent30/data/miniconda3/envs/psi4/share/psi4/basis/aug-cc-pvdz-jkfit.gbs

  ==> Integral Setup <==

  ==> DiskDFJK: Density-Fitted J/K Matrices <==

    J tasked:                  Yes
    K tasked:                  Yes
    wK tasked:                  No
    OpenMP threads:              2
    Integrals threads:           2
    Memory [MiB]:             5006
    Algorithm:                Core
    Integral Cache:           SAVE
    Schwarz Cutoff:          1E-12
    Fitting Condition:       1E-10

   => Auxiliary Basis Set <=

  Basis Set: (AUG-CC-PVDZ AUX)
    Blend: AUG-CC-PVDZ-JKFIT
    Number of shells: 432
    Number of basis functions: 1288
    Number of Cartesian functions: 1492
    Spherical Harmonics?: true
    Max angular momentum: 3

  Minimum eigenvalue in the overlap matrix is 9.4882905775E-06.
  Reciprocal condition number of the overlap matrix is 7.4005555361E-07.
    Using symmetric orthogonalization.

  ==> Pre-Iterations <==

  SCF Guess: Superposition of Atomic Densities via on-the-fly atomic UHF (no occupation information).

   -------------------------
    Irrep   Nso     Nmo
   -------------------------
     A        348     348
   -------------------------
    Total     348     348
   -------------------------

  ==> Iterations <==

                           Total Energy        Delta E     RMS |[F,P]|

   @DF-RHF iter SAD:  -524.65046251948274   -5.24650e+02   0.00000e+00
   @DF-RHF iter   1:  -525.07881933443980   -4.28357e-01   1.58371e-03 DIIS
   @DF-RHF iter   2:  -525.25757998083532   -1.78761e-01   5.80761e-04 DIIS
   @DF-RHF iter   3:  -525.27724877465528   -1.96688e-02   1.81367e-04 DIIS
   @DF-RHF iter   4:  -525.27969823583612   -2.44946e-03   5.33996e-05 DIIS
   @DF-RHF iter   5:  -525.27987743043468   -1.79195e-04   1.06851e-05 DIIS
   @DF-RHF iter   6:  -525.27989053054034   -1.31001e-05   3.46846e-06 DIIS
   @DF-RHF iter   7:  -525.27989243515890   -1.90462e-06   9.05273e-07 DIIS
   @DF-RHF iter   8:  -525.27989258291609   -1.47757e-07   1.40731e-07 DIIS
   @DF-RHF iter   9:  -525.27989258688319   -3.96710e-09   3.03506e-08 DIIS
   @DF-RHF iter  10:  -525.27989258702280   -1.39607e-10   1.58328e-08 DIIS
   @DF-RHF iter  11:  -525.27989258704281   -2.00089e-11   2.97465e-09 DIIS
   @DF-RHF iter  12:  -525.27989258704508   -2.27374e-12   6.41095e-10 DIIS
   @DF-RHF iter  13:  -525.27989258704531   -2.27374e-13   3.42928e-10 DIIS
   @DF-RHF iter  14:  -525.27989258704497    3.41061e-13   6.11665e-11 DIIS
  Energy and wave function converged.


  ==> Post-Iterations <==

    Orbital Energies [Eh]
    ---------------------

    Doubly Occupied:

       1A    -15.598061     2A    -15.598041     3A    -15.597979
       4A    -15.597960     5A    -11.274227     6A    -11.274182
       7A    -11.274145     8A    -11.274100     9A    -11.272964
      10A    -11.272956    11A    -11.272883    12A    -11.272873
      13A     -1.313335    14A     -1.313253    15A     -1.224164
      16A     -1.224082    17A     -1.076791    18A     -1.076709
      19A     -0.922651    20A     -0.922569    21A     -0.919270
      22A     -0.919188    23A     -0.760625    24A     -0.760543
      25A     -0.738390    26A     -0.738307    27A     -0.706202
      28A     -0.706120    29A     -0.647675    30A     -0.647593
      31A     -0.580699    32A     -0.580616    33A     -0.574357
      34A     -0.574276    35A     -0.497103    36A     -0.497020
      37A     -0.434277    38A     -0.434195    39A     -0.415845
      40A     -0.415762    41A     -0.359911    42A     -0.359830

    Virtual:

      43A      0.034514    44A      0.034597    45A      0.040758
      46A      0.040846    47A      0.048386    48A      0.048488
      49A      0.058598    50A      0.058703    51A      0.067129
      52A      0.067205    53A      0.099432    54A      0.099513
      55A      0.100959    56A      0.101044    57A      0.114220
      58A      0.114291    59A      0.114967    60A      0.115040
      61A      0.123778    62A      0.123880    63A      0.125336
      64A      0.125414    65A      0.128668    66A      0.128764
      67A      0.132909    68A      0.132983    69A      0.158216
      70A      0.158304    71A      0.161102    72A      0.161184
      73A      0.161331    74A      0.161434    75A      0.163910
      76A      0.164028    77A      0.175184    78A      0.175285
      79A      0.186933    80A      0.187011    81A      0.203928
      82A      0.204002    83A      0.212547    84A      0.212628
      85A      0.250531    86A      0.250608    87A      0.267763
      88A      0.267849    89A      0.278067    90A      0.278150
      91A      0.287824    92A      0.287903    93A      0.293217
      94A      0.293302    95A      0.295738    96A      0.295855
      97A      0.314840    98A      0.314930    99A      0.320470
     100A      0.320551   101A      0.355434   102A      0.355527
     103A      0.357923   104A      0.358003   105A      0.364672
     106A      0.364755   107A      0.382590   108A      0.382683
     109A      0.398907   110A      0.398988   111A      0.409905
     112A      0.409992   113A      0.425461   114A      0.425554
     115A      0.433941   116A      0.434021   117A      0.437226
     118A      0.437313   119A      0.452099   120A      0.452188
     121A      0.471496   122A      0.471577   123A      0.492152
     124A      0.492235   125A      0.504875   126A      0.504958
     127A      0.514930   128A      0.515006   129A      0.524558
     130A      0.524642   131A      0.528683   132A      0.528761
     133A      0.554590   134A      0.554672   135A      0.570547
     136A      0.570631   137A      0.587547   138A      0.587628
     139A      0.591517   140A      0.591598   141A      0.593810
     142A      0.593893   143A      0.608939   144A      0.609026
     145A      0.643525   146A      0.643612   147A      0.644332
     148A      0.644418   149A      0.685148   150A      0.685230
     151A      0.687771   152A      0.687852   153A      0.689945
     154A      0.690027   155A      0.690352   156A      0.690438
     157A      0.694840   158A      0.694925   159A      0.703836
     160A      0.703929   161A      0.746570   162A      0.746656
     163A      0.754831   164A      0.754913   165A      0.766975
     166A      0.767059   167A      0.781417   168A      0.781498
     169A      0.799828   170A      0.799912   171A      0.802723
     172A      0.802803   173A      0.819028   174A      0.819108
     175A      0.831084   176A      0.831163   177A      0.847522
     178A      0.847608   179A      0.880556   180A      0.880639
     181A      0.886422   182A      0.886505   183A      0.894697
     184A      0.894775   185A      0.929285   186A      0.929368
     187A      0.939478   188A      0.939559   189A      0.949318
     190A      0.949402   191A      0.996663   192A      0.996746
     193A      0.998916   194A      0.999001   195A      1.013025
     196A      1.013108   197A      1.033382   198A      1.033465
     199A      1.051207   200A      1.051288   201A      1.089391
     202A      1.089474   203A      1.100456   204A      1.100539
     205A      1.122211   206A      1.122293   207A      1.124058
     208A      1.124137   209A      1.134375   210A      1.134457
     211A      1.158751   212A      1.158836   213A      1.173577
     214A      1.173658   215A      1.235427   216A      1.235510
     217A      1.238816   218A      1.238900   219A      1.309686
     220A      1.309767   221A      1.331160   222A      1.331241
     223A      1.414295   224A      1.414376   225A      1.451537
     226A      1.451619   227A      1.486147   228A      1.486230
     229A      1.488085   230A      1.488168   231A      1.499223
     232A      1.499305   233A      1.502858   234A      1.502939
     235A      1.518264   236A      1.518348   237A      1.572698
     238A      1.572779   239A      1.574205   240A      1.574286
     241A      1.587849   242A      1.587930   243A      1.635994
     244A      1.636076   245A      1.640517   246A      1.640599
     247A      1.648230   248A      1.648314   249A      1.676565
     250A      1.676646   251A      1.717003   252A      1.717083
     253A      1.746610   254A      1.746691   255A      1.755117
     256A      1.755198   257A      1.783774   258A      1.783856
     259A      1.815740   260A      1.815821   261A      1.893336
     262A      1.893418   263A      1.916149   264A      1.916231
     265A      1.964841   266A      1.964923   267A      1.987686
     268A      1.987768   269A      2.031214   270A      2.031297
     271A      2.091561   272A      2.091642   273A      2.101040
     274A      2.101122   275A      2.142965   276A      2.143047
     277A      2.163367   278A      2.163450   279A      2.190501
     280A      2.190583   281A      2.193312   282A      2.193396
     283A      2.200392   284A      2.200474   285A      2.202423
     286A      2.202505   287A      2.227638   288A      2.227720
     289A      2.312772   290A      2.312855   291A      2.355241
     292A      2.355323   293A      2.430967   294A      2.431050
     295A      2.438988   296A      2.439071   297A      2.519391
     298A      2.519473   299A      2.522407   300A      2.522489
     301A      2.584776   302A      2.584859   303A      2.606277
     304A      2.606359   305A      2.665236   306A      2.665318
     307A      2.675420   308A      2.675502   309A      2.686407
     310A      2.686488   311A      2.713996   312A      2.714078
     313A      2.718603   314A      2.718685   315A      2.844026
     316A      2.844107   317A      2.865772   318A      2.865854
     319A      2.939207   320A      2.939290   321A      3.001867
     322A      3.001950   323A      3.017883   324A      3.017965
     325A      3.032198   326A      3.032280   327A      3.094149
     328A      3.094231   329A      3.220325   330A      3.220412
     331A      3.255992   332A      3.256074   333A      3.284891
     334A      3.284973   335A      3.366151   336A      3.366233
     337A      3.413379   338A      3.413462   339A      3.514931
     340A      3.515014   341A      3.590667   342A      3.590749
     343A      3.627780   344A      3.627862   345A      3.977248
     346A      3.977331   347A      4.253497   348A      4.253579

    Final Occupation by Irrep:
              A
    DOCC [    42 ]

  @DF-RHF Final Energy:  -525.27989258704497

   => Energetics <=

    Nuclear Repulsion Energy =            474.3571240884186864
    One-Electron Energy =               -1649.4305753984172043
    Two-Electron Energy =                 649.7935587229535486
    Total Energy =                       -525.2798925870449693

Computation Completed


Properties will be evaluated at   0.000000,   0.000000,   0.000000 [a0]

Properties computed using the SCF density matrix

  Nuclear Dipole Moment: [e a0]
     X: -1000.0516      Y:  -614.1349      Z:  -704.9196

  Electronic Dipole Moment: [e a0]
     X:  1000.0521      Y:   614.1350      Z:   704.9199

  Dipole Moment: [e a0]
     X:     0.0005      Y:     0.0001      Z:     0.0002     Total:     0.0005

  Dipole Moment: [D]
     X:     0.0012      Y:     0.0003      Z:     0.0006     Total:     0.0014


*** tstop() called on atl1-1-01-013-7-l.pace.gatech.edu at Mon Nov 29 16:10:57 2021
Module time:
	user time   =      26.63 seconds =       0.44 minutes
	system time =       1.02 seconds =       0.02 minutes
	total time  =         15 seconds =       0.25 minutes
Total time:
	user time   =      26.63 seconds =       0.44 minutes
	system time =       1.02 seconds =       0.02 minutes
	total time  =         15 seconds =       0.25 minutes

  //>>>>>>>>>>>>>>>>>>>>>>>>>>>>>>>>>>>//
  //            Monomer A HF           //
  //<<<<<<<<<<<<<<<<<<<<<<<<<<<<<<<<<<<//


*** tstart() called on atl1-1-01-013-7-l.pace.gatech.edu
*** at Mon Nov 29 16:10:57 2021

   => Loading Basis Set <=

    Name: AUG-CC-PVDZ
    Role: ORBITAL
    Keyword: BASIS
    atoms 1-2, 11-12  entry N          line   218 file /storage/home/hhive1/csargent30/data/miniconda3/envs/psi4/share/psi4/basis/aug-cc-pvdz.gbs
    atoms 3-6, 13-16  entry H          line    40 file /storage/home/hhive1/csargent30/data/miniconda3/envs/psi4/share/psi4/basis/aug-cc-pvdz.gbs
    atoms 7-10, 17-20 entry C          line   182 file /storage/home/hhive1/csargent30/data/miniconda3/envs/psi4/share/psi4/basis/aug-cc-pvdz.gbs


         ---------------------------------------------------------
                                   SCF
               by Justin Turney, Rob Parrish, Andy Simmonett
                          and Daniel G. A. Smith
                              RHF Reference
                        2 Threads,   6675 MiB Core
         ---------------------------------------------------------

  ==> Geometry <==

    Molecular point group: c1
    Full point group: C1

    Geometry (in Bohr), charge = 0, multiplicity = 1:

       Center              X                  Y                   Z               Mass
    ------------   -----------------  -----------------  -----------------  -----------------
         N           -1.330847580000     0.980326580000     0.426270370000    14.003074004430
         N            3.953773330000     0.980326580000     0.426270370000    14.003074004430
         H            3.567136740000     4.352185690000    -0.942309730000     1.007825032230
         H           -0.944210980000     4.352185690000    -0.942309730000     1.007825032230
         H           -0.944210980000    -2.391532530000     1.794850470000     1.007825032230
         H            3.567136740000    -2.391532530000     1.794850470000     1.007825032230
         C            2.622925760000     2.940979740000    -0.426270370000    12.000000000000
         C            0.000000000000     2.940979740000    -0.426270370000    12.000000000000
         C            0.000000000000    -0.980326580000     1.278811120000    12.000000000000
         C            2.622925760000    -0.980326580000     1.278811120000    12.000000000000
      Gh(N)         -27.764525590000   -15.602587090000   -17.210071120000    14.003074004430
      Gh(N)         -22.479904680000   -15.602587090000   -17.210071120000    14.003074004430
      Gh(H)         -27.377888990000   -18.974446200000   -18.578651220000     1.007825032230
      Gh(H)         -27.377888990000   -12.230727980000   -15.841491020000     1.007825032230
      Gh(H)         -22.866541280000   -18.974446200000   -18.578651220000     1.007825032230
      Gh(H)         -22.866541280000   -12.230727980000   -15.841491020000     1.007825032230
      Gh(C)         -26.433678020000   -17.563240250000   -18.062611870000    12.000000000000
      Gh(C)         -26.433678020000   -13.641933930000   -16.357530380000    12.000000000000
      Gh(C)         -23.810752260000   -17.563240250000   -18.062611870000    12.000000000000
      Gh(C)         -23.810752260000   -13.641933930000   -16.357530380000    12.000000000000

  Running in c1 symmetry.

  Rotational constants: A =      0.08352  B =      0.00064  C =      0.00063 [cm^-1]
  Rotational constants: A =   2503.92126  B =     19.08297  C =     19.02575 [MHz]
  Nuclear repulsion =  212.551731110485349

  Charge       = 0
  Multiplicity = 1
  Electrons    = 42
  Nalpha       = 21
  Nbeta        = 21

  ==> Algorithm <==

  SCF Algorithm Type is DF.
  DIIS enabled.
  MOM disabled.
  Fractional occupation disabled.
  Guess Type is SAD.
  Energy threshold   = 1.00e-10
  Density threshold  = 1.00e-10
  Integral threshold = 1.00e-12

  ==> Primary Basis <==

  Basis Set: AUG-CC-PVDZ
    Blend: AUG-CC-PVDZ
    Number of shells: 148
    Number of basis functions: 348
    Number of Cartesian functions: 372
    Spherical Harmonics?: true
    Max angular momentum: 2

   => Loading Basis Set <=

    Name: (AUG-CC-PVDZ AUX)
    Role: JKFIT
    Keyword: DF_BASIS_SCF
    atoms 1-2, 11-12  entry N          line   212 file /storage/home/hhive1/csargent30/data/miniconda3/envs/psi4/share/psi4/basis/aug-cc-pvdz-jkfit.gbs
    atoms 3-6, 13-16  entry H          line    70 file /storage/home/hhive1/csargent30/data/miniconda3/envs/psi4/share/psi4/basis/aug-cc-pvdz-jkfit.gbs
    atoms 7-10, 17-20 entry C          line   154 file /storage/home/hhive1/csargent30/data/miniconda3/envs/psi4/share/psi4/basis/aug-cc-pvdz-jkfit.gbs

  ==> Integral Setup <==

  ==> DiskDFJK: Density-Fitted J/K Matrices <==

    J tasked:                  Yes
    K tasked:                  Yes
    wK tasked:                  No
    OpenMP threads:              2
    Integrals threads:           2
    Memory [MiB]:             5006
    Algorithm:                Core
    Integral Cache:           LOAD
    Schwarz Cutoff:          1E-12
    Fitting Condition:       1E-10

   => Auxiliary Basis Set <=

  Basis Set: (AUG-CC-PVDZ AUX)
    Blend: AUG-CC-PVDZ-JKFIT
    Number of shells: 432
    Number of basis functions: 1288
    Number of Cartesian functions: 1492
    Spherical Harmonics?: true
    Max angular momentum: 3

  Minimum eigenvalue in the overlap matrix is 9.4882905775E-06.
  Reciprocal condition number of the overlap matrix is 7.4005555361E-07.
    Using symmetric orthogonalization.

  ==> Pre-Iterations <==

  SCF Guess: Superposition of Atomic Densities via on-the-fly atomic UHF (no occupation information).

   -------------------------
    Irrep   Nso     Nmo
   -------------------------
     A        348     348
   -------------------------
    Total     348     348
   -------------------------

  ==> Iterations <==

                           Total Energy        Delta E     RMS |[F,P]|

   @DF-RHF iter SAD:  -262.32523125779494   -2.62325e+02   0.00000e+00
   @DF-RHF iter   1:  -262.53940798084739   -2.14177e-01   1.11985e-03 DIIS
   @DF-RHF iter   2:  -262.62878837346096   -8.93804e-02   4.10664e-04 DIIS
   @DF-RHF iter   3:  -262.63862291804776   -9.83454e-03   1.28248e-04 DIIS
   @DF-RHF iter   4:  -262.63984767132052   -1.22475e-03   3.77599e-05 DIIS
   @DF-RHF iter   5:  -262.63993727178303   -8.96005e-05   7.55558e-06 DIIS
   @DF-RHF iter   6:  -262.63994382204226   -6.55026e-06   2.45264e-06 DIIS
   @DF-RHF iter   7:  -262.63994477441588   -9.52374e-07   6.40130e-07 DIIS
   @DF-RHF iter   8:  -262.63994484830374   -7.38879e-08   9.91693e-08 DIIS
   @DF-RHF iter   9:  -262.63994485028991   -1.98617e-09   1.88228e-08 DIIS
   @DF-RHF iter  10:  -262.63994485036005   -7.01448e-11   3.19151e-09 DIIS
   @DF-RHF iter  11:  -262.63994485036255   -2.50111e-12   5.22317e-10 DIIS
   @DF-RHF iter  12:  -262.63994485036233    2.27374e-13   9.54308e-11 DIIS
  Energy and wave function converged.


  ==> Post-Iterations <==

    Orbital Energies [Eh]
    ---------------------

    Doubly Occupied:

       1A    -15.598072     2A    -15.598053     3A    -11.274239
       4A    -11.274194     5A    -11.272975     6A    -11.272969
       7A     -1.313347     8A     -1.224176     9A     -1.076803
      10A     -0.922662    11A     -0.919282    12A     -0.760637
      13A     -0.738402    14A     -0.706214    15A     -0.647687
      16A     -0.580711    17A     -0.574369    18A     -0.497113
      19A     -0.434288    20A     -0.415855    21A     -0.359924

    Virtual:

      22A      0.022456    23A      0.034497    24A      0.039539
      25A      0.040738    26A      0.041203    27A      0.048383
      28A      0.058590    29A      0.058884    30A      0.067113
      31A      0.079696    32A      0.085076    33A      0.099419
      34A      0.100948    35A      0.104023    36A      0.108526
      37A      0.108872    38A      0.114201    39A      0.114951
      40A      0.122516    41A      0.123776    42A      0.125322
      43A      0.125615    44A      0.128661    45A      0.130959
      46A      0.132889    47A      0.134178    48A      0.152134
      49A      0.153048    50A      0.158199    51A      0.159361
      52A      0.161084    53A      0.161326    54A      0.163914
      55A      0.175179    56A      0.176772    57A      0.186918
      58A      0.197820    59A      0.203908    60A      0.203923
      61A      0.206679    62A      0.212538    63A      0.222405
      64A      0.233630    65A      0.239457    66A      0.250517
      67A      0.255235    68A      0.267756    69A      0.270797
      70A      0.278056    71A      0.287812    72A      0.293207
      73A      0.295749    74A      0.302345    75A      0.314832
      76A      0.320457    77A      0.320659    78A      0.328180
      79A      0.331319    80A      0.344137    81A      0.355428
      82A      0.357908    83A      0.364661    84A      0.380519
      85A      0.382583    86A      0.385653    87A      0.398891
      88A      0.401290    89A      0.409895    90A      0.419291
      91A      0.424968    92A      0.425453    93A      0.433925
      94A      0.437212    95A      0.441951    96A      0.452092
      97A      0.460673    98A      0.461123    99A      0.471483
     100A      0.476104   101A      0.478839   102A      0.492140
     103A      0.504862   104A      0.507844   105A      0.514914
     106A      0.523787   107A      0.524547   108A      0.528668
     109A      0.535752   110A      0.554577   111A      0.557863
     112A      0.561533   113A      0.564513   114A      0.570535
     115A      0.581926   116A      0.587535   117A      0.591506
     118A      0.593799   119A      0.596031   120A      0.608929
     121A      0.615157   122A      0.620175   123A      0.636381
     124A      0.643517   125A      0.644321   126A      0.649374
     127A      0.651507   128A      0.679433   129A      0.685136
     130A      0.685335   131A      0.687758   132A      0.689932
     133A      0.690342   134A      0.694828   135A      0.703829
     136A      0.719911   137A      0.728409   138A      0.746558
     139A      0.746805   140A      0.754817   141A      0.766965
     142A      0.775698   143A      0.781406   144A      0.793650
     145A      0.799815   146A      0.802710   147A      0.811111
     148A      0.811998   149A      0.819016   150A      0.824769
     151A      0.831071   152A      0.847513   153A      0.848077
     154A      0.849202   155A      0.868624   156A      0.880544
     157A      0.886410   158A      0.888166   159A      0.894682
     160A      0.906121   161A      0.929132   162A      0.929272
     163A      0.939466   164A      0.947708   165A      0.949307
     166A      0.970797   167A      0.976950   168A      0.986652
     169A      0.996652   170A      0.998908   171A      1.013015
     172A      1.032438   173A      1.033370   174A      1.046946
     175A      1.051194   176A      1.076282   177A      1.089381
     178A      1.090293   179A      1.100445   180A      1.122199
     181A      1.124044   182A      1.130680   183A      1.134362
     184A      1.140282   185A      1.158740   186A      1.168606
     187A      1.170694   188A      1.173565   189A      1.192224
     190A      1.193256   191A      1.200487   192A      1.222335
     193A      1.235416   194A      1.238804   195A      1.251043
     196A      1.307572   197A      1.309674   198A      1.318275
     199A      1.326430   200A      1.329626   201A      1.331148
     202A      1.346822   203A      1.389234   204A      1.414282
     205A      1.448405   206A      1.451526   207A      1.455475
     208A      1.479150   209A      1.486137   210A      1.487221
     211A      1.488075   212A      1.499211   213A      1.502846
     214A      1.518252   215A      1.572686   216A      1.574192
     217A      1.587836   218A      1.635982   219A      1.640505
     220A      1.648219   221A      1.659258   222A      1.676552
     223A      1.698083   224A      1.716991   225A      1.746597
     226A      1.755104   227A      1.783762   228A      1.815727
     229A      1.893323   230A      1.916137   231A      1.964829
     232A      1.987674   233A      2.031202   234A      2.070247
     235A      2.091548   236A      2.101028   237A      2.102783
     238A      2.119463   239A      2.142953   240A      2.156696
     241A      2.159209   242A      2.163355   243A      2.190488
     244A      2.193301   245A      2.194880   246A      2.200380
     247A      2.202410   248A      2.227626   249A      2.234794
     250A      2.241223   251A      2.249680   252A      2.310036
     253A      2.312761   254A      2.319565   255A      2.355229
     256A      2.384825   257A      2.419229   258A      2.430957
     259A      2.435432   260A      2.438186   261A      2.438977
     262A      2.472696   263A      2.486745   264A      2.498342
     265A      2.519379   266A      2.522395   267A      2.525087
     268A      2.546015   269A      2.568348   270A      2.584766
     271A      2.592393   272A      2.606266   273A      2.625993
     274A      2.665224   275A      2.675409   276A      2.686395
     277A      2.713985   278A      2.716918   279A      2.718591
     280A      2.726670   281A      2.767953   282A      2.844014
     283A      2.865761   284A      2.904057   285A      2.939196
     286A      2.947246   287A      2.955770   288A      2.973360
     289A      3.001855   290A      3.017872   291A      3.032186
     292A      3.058350   293A      3.065251   294A      3.094137
     295A      3.113890   296A      3.220316   297A      3.245749
     298A      3.255980   299A      3.284880   300A      3.289699
     301A      3.321981   302A      3.337759   303A      3.340507
     304A      3.348679   305A      3.351401   306A      3.366140
     307A      3.412650   308A      3.413367   309A      3.470806
     310A      3.502006   311A      3.514920   312A      3.521412
     313A      3.590655   314A      3.604487   315A      3.605693
     316A      3.627769   317A      3.700534   318A      3.818975
     319A      3.830737   320A      3.941018   321A      3.969147
     322A      3.977236   323A      4.011454   324A      4.194808
     325A      4.242301   326A      4.253485   327A      4.442039
     328A      4.546880   329A      4.579326   330A      4.867689
     331A      4.976194   332A      5.057902   333A      5.261762
     334A      5.316590   335A      5.630249   336A      5.691374
     337A      5.827198   338A      5.952685   339A      6.283879
     340A      6.306941   341A      6.453819   342A      6.631252
     343A     18.125769   344A     18.208031   345A     19.017626
     346A     19.343051   347A     25.287111   348A     25.374831

    Final Occupation by Irrep:
              A
    DOCC [    21 ]

  @DF-RHF Final Energy:  -262.63994485036233

   => Energetics <=

    Nuclear Repulsion Energy =            212.5517311104853491
    One-Electron Energy =                -775.4594096289638401
    Two-Electron Energy =                 300.2677336681161933
    Total Energy =                       -262.6399448503623262

Computation Completed


Properties will be evaluated at   0.000000,   0.000000,   0.000000 [a0]

Properties computed using the SCF density matrix

  Nuclear Dipole Moment: [e a0]
     X:    55.0814      Y:    41.1737      Z:    17.9034

  Electronic Dipole Moment: [e a0]
     X:   -55.0814      Y:   -41.1737      Z:   -17.9034

  Dipole Moment: [e a0]
     X:    -0.0000      Y:     0.0000      Z:    -0.0000     Total:     0.0000

  Dipole Moment: [D]
     X:    -0.0000      Y:     0.0000      Z:    -0.0000     Total:     0.0000


*** tstop() called on atl1-1-01-013-7-l.pace.gatech.edu at Mon Nov 29 16:11:06 2021
Module time:
	user time   =      16.67 seconds =       0.28 minutes
	system time =       0.48 seconds =       0.01 minutes
	total time  =          9 seconds =       0.15 minutes
Total time:
	user time   =      43.31 seconds =       0.72 minutes
	system time =       1.50 seconds =       0.03 minutes
	total time  =         24 seconds =       0.40 minutes

  //>>>>>>>>>>>>>>>>>>>>>>>>>>>>>>>>>>>//
  //            Monomer B HF           //
  //<<<<<<<<<<<<<<<<<<<<<<<<<<<<<<<<<<<//


*** tstart() called on atl1-1-01-013-7-l.pace.gatech.edu
*** at Mon Nov 29 16:11:06 2021

   => Loading Basis Set <=

    Name: AUG-CC-PVDZ
    Role: ORBITAL
    Keyword: BASIS
    atoms 1-2, 11-12  entry N          line   218 file /storage/home/hhive1/csargent30/data/miniconda3/envs/psi4/share/psi4/basis/aug-cc-pvdz.gbs
    atoms 3-6, 13-16  entry H          line    40 file /storage/home/hhive1/csargent30/data/miniconda3/envs/psi4/share/psi4/basis/aug-cc-pvdz.gbs
    atoms 7-10, 17-20 entry C          line   182 file /storage/home/hhive1/csargent30/data/miniconda3/envs/psi4/share/psi4/basis/aug-cc-pvdz.gbs


         ---------------------------------------------------------
                                   SCF
               by Justin Turney, Rob Parrish, Andy Simmonett
                          and Daniel G. A. Smith
                              RHF Reference
                        2 Threads,   6675 MiB Core
         ---------------------------------------------------------

  ==> Geometry <==

    Molecular point group: c1
    Full point group: C1

    Geometry (in Bohr), charge = 0, multiplicity = 1:

       Center              X                  Y                   Z               Mass
    ------------   -----------------  -----------------  -----------------  -----------------
      Gh(N)          -1.330847580000     0.980326580000     0.426270370000    14.003074004430
      Gh(N)           3.953773330000     0.980326580000     0.426270370000    14.003074004430
      Gh(H)           3.567136740000     4.352185690000    -0.942309730000     1.007825032230
      Gh(H)          -0.944210980000     4.352185690000    -0.942309730000     1.007825032230
      Gh(H)          -0.944210980000    -2.391532530000     1.794850470000     1.007825032230
      Gh(H)           3.567136740000    -2.391532530000     1.794850470000     1.007825032230
      Gh(C)           2.622925760000     2.940979740000    -0.426270370000    12.000000000000
      Gh(C)           0.000000000000     2.940979740000    -0.426270370000    12.000000000000
      Gh(C)           0.000000000000    -0.980326580000     1.278811120000    12.000000000000
      Gh(C)           2.622925760000    -0.980326580000     1.278811120000    12.000000000000
         N          -27.764525590000   -15.602587090000   -17.210071120000    14.003074004430
         N          -22.479904680000   -15.602587090000   -17.210071120000    14.003074004430
         H          -27.377888990000   -18.974446200000   -18.578651220000     1.007825032230
         H          -27.377888990000   -12.230727980000   -15.841491020000     1.007825032230
         H          -22.866541280000   -18.974446200000   -18.578651220000     1.007825032230
         H          -22.866541280000   -12.230727980000   -15.841491020000     1.007825032230
         C          -26.433678020000   -17.563240250000   -18.062611870000    12.000000000000
         C          -26.433678020000   -13.641933930000   -16.357530380000    12.000000000000
         C          -23.810752260000   -17.563240250000   -18.062611870000    12.000000000000
         C          -23.810752260000   -13.641933930000   -16.357530380000    12.000000000000

  Running in c1 symmetry.

  Rotational constants: A =      0.08352  B =      0.00064  C =      0.00063 [cm^-1]
  Rotational constants: A =   2503.92126  B =     19.08297  C =     19.02575 [MHz]
  Nuclear repulsion =  212.551731143112931

  Charge       = 0
  Multiplicity = 1
  Electrons    = 42
  Nalpha       = 21
  Nbeta        = 21

  ==> Algorithm <==

  SCF Algorithm Type is DF.
  DIIS enabled.
  MOM disabled.
  Fractional occupation disabled.
  Guess Type is SAD.
  Energy threshold   = 1.00e-10
  Density threshold  = 1.00e-10
  Integral threshold = 1.00e-12

  ==> Primary Basis <==

  Basis Set: AUG-CC-PVDZ
    Blend: AUG-CC-PVDZ
    Number of shells: 148
    Number of basis functions: 348
    Number of Cartesian functions: 372
    Spherical Harmonics?: true
    Max angular momentum: 2

   => Loading Basis Set <=

    Name: (AUG-CC-PVDZ AUX)
    Role: JKFIT
    Keyword: DF_BASIS_SCF
    atoms 1-2, 11-12  entry N          line   212 file /storage/home/hhive1/csargent30/data/miniconda3/envs/psi4/share/psi4/basis/aug-cc-pvdz-jkfit.gbs
    atoms 3-6, 13-16  entry H          line    70 file /storage/home/hhive1/csargent30/data/miniconda3/envs/psi4/share/psi4/basis/aug-cc-pvdz-jkfit.gbs
    atoms 7-10, 17-20 entry C          line   154 file /storage/home/hhive1/csargent30/data/miniconda3/envs/psi4/share/psi4/basis/aug-cc-pvdz-jkfit.gbs

  ==> Integral Setup <==

  ==> DiskDFJK: Density-Fitted J/K Matrices <==

    J tasked:                  Yes
    K tasked:                  Yes
    wK tasked:                  No
    OpenMP threads:              2
    Integrals threads:           2
    Memory [MiB]:             5006
    Algorithm:                Core
    Integral Cache:           LOAD
    Schwarz Cutoff:          1E-12
    Fitting Condition:       1E-10

   => Auxiliary Basis Set <=

  Basis Set: (AUG-CC-PVDZ AUX)
    Blend: AUG-CC-PVDZ-JKFIT
    Number of shells: 432
    Number of basis functions: 1288
    Number of Cartesian functions: 1492
    Spherical Harmonics?: true
    Max angular momentum: 3

  Minimum eigenvalue in the overlap matrix is 9.4882905775E-06.
  Reciprocal condition number of the overlap matrix is 7.4005555361E-07.
    Using symmetric orthogonalization.

  ==> Pre-Iterations <==

  SCF Guess: Superposition of Atomic Densities via on-the-fly atomic UHF (no occupation information).

   -------------------------
    Irrep   Nso     Nmo
   -------------------------
     A        348     348
   -------------------------
    Total     348     348
   -------------------------

  ==> Iterations <==

                           Total Energy        Delta E     RMS |[F,P]|

   @DF-RHF iter SAD:  -262.32523126115740   -2.62325e+02   0.00000e+00
   @DF-RHF iter   1:  -262.53940797994829   -2.14177e-01   1.11985e-03 DIIS
   @DF-RHF iter   2:  -262.62878837259160   -8.93804e-02   4.10664e-04 DIIS
   @DF-RHF iter   3:  -262.63862291712297   -9.83454e-03   1.28248e-04 DIIS
   @DF-RHF iter   4:  -262.63984767038704   -1.22475e-03   3.77599e-05 DIIS
   @DF-RHF iter   5:  -262.63993727084795   -8.96005e-05   7.55558e-06 DIIS
   @DF-RHF iter   6:  -262.63994382110769   -6.55026e-06   2.45264e-06 DIIS
   @DF-RHF iter   7:  -262.63994477348035   -9.52373e-07   6.40130e-07 DIIS
   @DF-RHF iter   8:  -262.63994484736821   -7.38879e-08   9.91693e-08 DIIS
   @DF-RHF iter   9:  -262.63994484935392   -1.98571e-09   1.88228e-08 DIIS
   @DF-RHF iter  10:  -262.63994484942532   -7.13953e-11   3.19151e-09 DIIS
   @DF-RHF iter  11:  -262.63994484942725   -1.93268e-12   5.22316e-10 DIIS
   @DF-RHF iter  12:  -262.63994484942805   -7.95808e-13   9.54300e-11 DIIS
  Energy and wave function converged.


  ==> Post-Iterations <==

    Orbital Energies [Eh]
    ---------------------

    Doubly Occupied:

       1A    -15.598072     2A    -15.598053     3A    -11.274239
       4A    -11.274194     5A    -11.272975     6A    -11.272969
       7A     -1.313347     8A     -1.224176     9A     -1.076803
      10A     -0.922662    11A     -0.919282    12A     -0.760637
      13A     -0.738402    14A     -0.706214    15A     -0.647687
      16A     -0.580711    17A     -0.574369    18A     -0.497113
      19A     -0.434288    20A     -0.415855    21A     -0.359924

    Virtual:

      22A      0.022374    23A      0.034497    24A      0.039452
      25A      0.040738    26A      0.041109    27A      0.048383
      28A      0.058590    29A      0.058784    30A      0.067113
      31A      0.079629    32A      0.084990    33A      0.099419
      34A      0.100948    35A      0.103928    36A      0.108453
      37A      0.108784    38A      0.114201    39A      0.114951
      40A      0.122444    41A      0.123776    42A      0.125322
      43A      0.125530    44A      0.128661    45A      0.130890
      46A      0.132889    47A      0.134083    48A      0.152038
      49A      0.152959    50A      0.158199    51A      0.159284
      52A      0.161084    53A      0.161326    54A      0.163914
      55A      0.175179    56A      0.176676    57A      0.186918
      58A      0.197733    59A      0.203849    60A      0.203908
      61A      0.206601    62A      0.212538    63A      0.222323
      64A      0.233544    65A      0.239367    66A      0.250517
      67A      0.255158    68A      0.267756    69A      0.270712
      70A      0.278057    71A      0.287812    72A      0.293207
      73A      0.295749    74A      0.302264    75A      0.314832
      76A      0.320457    77A      0.320572    78A      0.328093
      79A      0.331242    80A      0.344047    81A      0.355428
      82A      0.357908    83A      0.364661    84A      0.380432
      85A      0.382583    86A      0.385576    87A      0.398891
      88A      0.401205    89A      0.409895    90A      0.419204
      91A      0.424891    92A      0.425453    93A      0.433925
      94A      0.437212    95A      0.441869    96A      0.452092
      97A      0.460593    98A      0.461042    99A      0.471483
     100A      0.476023   101A      0.478754   102A      0.492140
     103A      0.504862   104A      0.507759   105A      0.514914
     106A      0.523698   107A      0.524547   108A      0.528668
     109A      0.535671   110A      0.554577   111A      0.557778
     112A      0.561453   113A      0.564430   114A      0.570535
     115A      0.581839   116A      0.587535   117A      0.591506
     118A      0.593799   119A      0.595942   120A      0.608929
     121A      0.615077   122A      0.620097   123A      0.636301
     124A      0.643517   125A      0.644321   126A      0.649292
     127A      0.651427   128A      0.679348   129A      0.685136
     130A      0.685248   131A      0.687758   132A      0.689932
     133A      0.690342   134A      0.694828   135A      0.703829
     136A      0.719827   137A      0.728332   138A      0.746558
     139A      0.746727   140A      0.754817   141A      0.766965
     142A      0.775619   143A      0.781406   144A      0.793566
     145A      0.799815   146A      0.802710   147A      0.811029
     148A      0.811915   149A      0.819016   150A      0.824685
     151A      0.831071   152A      0.847513   153A      0.847998
     154A      0.849119   155A      0.868542   156A      0.880544
     157A      0.886410   158A      0.888085   159A      0.894682
     160A      0.906041   161A      0.929047   162A      0.929272
     163A      0.939466   164A      0.947627   165A      0.949307
     166A      0.970719   167A      0.976869   168A      0.986569
     169A      0.996652   170A      0.998908   171A      1.013015
     172A      1.032354   173A      1.033370   174A      1.046866
     175A      1.051194   176A      1.076201   177A      1.089381
     178A      1.090211   179A      1.100445   180A      1.122199
     181A      1.124044   182A      1.130597   183A      1.134362
     184A      1.140201   185A      1.158740   186A      1.168527
     187A      1.170613   188A      1.173565   189A      1.192142
     190A      1.193175   191A      1.200409   192A      1.222252
     193A      1.235416   194A      1.238804   195A      1.250963
     196A      1.307493   197A      1.309674   198A      1.318197
     199A      1.326348   200A      1.329546   201A      1.331148
     202A      1.346742   203A      1.389151   204A      1.414282
     205A      1.448322   206A      1.451526   207A      1.455394
     208A      1.479069   209A      1.486137   210A      1.487140
     211A      1.488075   212A      1.499211   213A      1.502846
     214A      1.518252   215A      1.572686   216A      1.574192
     217A      1.587836   218A      1.635982   219A      1.640505
     220A      1.648219   221A      1.659176   222A      1.676552
     223A      1.698002   224A      1.716991   225A      1.746597
     226A      1.755104   227A      1.783762   228A      1.815727
     229A      1.893323   230A      1.916137   231A      1.964829
     232A      1.987674   233A      2.031202   234A      2.070167
     235A      2.091548   236A      2.101028   237A      2.102704
     238A      2.119384   239A      2.142953   240A      2.156616
     241A      2.159129   242A      2.163355   243A      2.190488
     244A      2.193301   245A      2.194799   246A      2.200380
     247A      2.202410   248A      2.227626   249A      2.234715
     250A      2.241143   251A      2.249600   252A      2.309954
     253A      2.312761   254A      2.319487   255A      2.355229
     256A      2.384744   257A      2.419148   258A      2.430957
     259A      2.435350   260A      2.438104   261A      2.438977
     262A      2.472616   263A      2.486663   264A      2.498260
     265A      2.519379   266A      2.522395   267A      2.525007
     268A      2.545935   269A      2.568266   270A      2.584766
     271A      2.592312   272A      2.606266   273A      2.625911
     274A      2.665224   275A      2.675409   276A      2.686395
     277A      2.713985   278A      2.716837   279A      2.718591
     280A      2.726590   281A      2.767873   282A      2.844014
     283A      2.865761   284A      2.903975   285A      2.939196
     286A      2.947164   287A      2.955690   288A      2.973279
     289A      3.001855   290A      3.017872   291A      3.032186
     292A      3.058270   293A      3.065169   294A      3.094137
     295A      3.113808   296A      3.220316   297A      3.245669
     298A      3.255980   299A      3.284880   300A      3.289619
     301A      3.321902   302A      3.337679   303A      3.340426
     304A      3.348598   305A      3.351320   306A      3.366140
     307A      3.412569   308A      3.413367   309A      3.470724
     310A      3.501926   311A      3.514920   312A      3.521331
     313A      3.590655   314A      3.604406   315A      3.605613
     316A      3.627769   317A      3.700454   318A      3.818895
     319A      3.830657   320A      3.940938   321A      3.969066
     322A      3.977236   323A      4.011373   324A      4.194728
     325A      4.242221   326A      4.253485   327A      4.441959
     328A      4.546799   329A      4.579246   330A      4.867609
     331A      4.976114   332A      5.057822   333A      5.261682
     334A      5.316511   335A      5.630168   336A      5.691294
     337A      5.827117   338A      5.952604   339A      6.283798
     340A      6.306861   341A      6.453738   342A      6.631171
     343A     18.125689   344A     18.207951   345A     19.017547
     346A     19.342972   347A     25.287030   348A     25.374750

    Final Occupation by Irrep:
              A
    DOCC [    21 ]

  @DF-RHF Final Energy:  -262.63994484942805

   => Energetics <=

    Nuclear Repulsion Energy =            212.5517311431129315
    One-Electron Energy =                -775.4594096815555986
    Two-Electron Energy =                 300.2677336890146762
    Total Energy =                       -262.6399448494280477

Computation Completed


Properties will be evaluated at   0.000000,   0.000000,   0.000000 [a0]

Properties computed using the SCF density matrix

  Nuclear Dipole Moment: [e a0]
     X: -1055.1330      Y:  -655.3087      Z:  -722.8230

  Electronic Dipole Moment: [e a0]
     X:  1055.1330      Y:   655.3087      Z:   722.8230

  Dipole Moment: [e a0]
     X:     0.0000      Y:    -0.0000      Z:    -0.0000     Total:     0.0000

  Dipole Moment: [D]
     X:     0.0000      Y:    -0.0000      Z:    -0.0000     Total:     0.0000


*** tstop() called on atl1-1-01-013-7-l.pace.gatech.edu at Mon Nov 29 16:11:16 2021
Module time:
	user time   =      16.71 seconds =       0.28 minutes
	system time =       0.47 seconds =       0.01 minutes
	total time  =         10 seconds =       0.17 minutes
Total time:
	user time   =      60.03 seconds =       1.00 minutes
	system time =       1.97 seconds =       0.03 minutes
	total time  =         34 seconds =       0.57 minutes
  Constructing Basis Sets for SAPT...

   => Loading Basis Set <=

    Name: (AUG-CC-PVDZ AUX)
    Role: RIFIT
    Keyword: DF_BASIS_SAPT
    atoms 1-2, 11-12  entry N          line   158 file /storage/home/hhive1/csargent30/data/miniconda3/envs/psi4/share/psi4/basis/aug-cc-pvdz-ri.gbs
    atoms 3-6, 13-16  entry H          line    30 file /storage/home/hhive1/csargent30/data/miniconda3/envs/psi4/share/psi4/basis/aug-cc-pvdz-ri.gbs
    atoms 7-10, 17-20 entry C          line   112 file /storage/home/hhive1/csargent30/data/miniconda3/envs/psi4/share/psi4/basis/aug-cc-pvdz-ri.gbs


  //>>>>>>>>>>>>>>>>>>>>>>>>>>>>>>>>>>>//
  //               SAPT0               //
  //<<<<<<<<<<<<<<<<<<<<<<<<<<<<<<<<<<<//


*** tstart() called on atl1-1-01-013-7-l.pace.gatech.edu
*** at Mon Nov 29 16:11:16 2021

        SAPT0
    Ed Hohenstein
     6 June 2009

      Orbital Information
  --------------------------
    NSO        =       348
    NMO        =       348
    NRI        =      1048
    NOCC A     =        21
    NOCC B     =        21
    FOCC A     =         6
    FOCC B     =         6
    NVIR A     =       327
    NVIR B     =       327

    Elst10,r            =    -0.000002894803 [Eh]
    Exch10              =     0.000000000000 [Eh]
    Exch10 (S^2)        =     0.000000000000 [Eh]

    Iter     Energy [mEh]          dE [mEh]         Residual      Time [s]
       1      -0.00000275       0.000002751       0.018631982             0
       2      -0.00000246      -0.000000290       0.004271889             0
       3      -0.00000268       0.000000216       0.001936317             1
       4      -0.00000273       0.000000053       0.000619531             1
       5      -0.00000272      -0.000000006       0.000402705             2
       6      -0.00000272      -0.000000007       0.000133999             2
       7      -0.00000272       0.000000001       0.000046424             2
       8      -0.00000272       0.000000000       0.000014591             3
       9      -0.00000272      -0.000000000       0.000004427             3
      10      -0.00000272      -0.000000000       0.000001353             3
      11      -0.00000272       0.000000000       0.000000526             4

    CHF Iterations converged


    Iter     Energy [mEh]          dE [mEh]         Residual      Time [s]
       1      -0.00000309       0.000003086       0.020053044             0
       2      -0.00000277      -0.000000319       0.004223485             1
       3      -0.00000309       0.000000325       0.001395376             1
       4      -0.00000310       0.000000010       0.000994129             1
       5      -0.00000309      -0.000000012       0.000410079             2
       6      -0.00000309      -0.000000003       0.000120539             2
       7      -0.00000309       0.000000001       0.000045913             2
       8      -0.00000309       0.000000001       0.000010741             3
       9      -0.00000309      -0.000000000       0.000004166             3
      10      -0.00000309      -0.000000000       0.000001510             4
      11      -0.00000309       0.000000000       0.000000825             4

    CHF Iterations converged

    Ind20,r (A<-B)      =    -0.000000002718 [Eh]
    Ind20,r (B<-A)      =    -0.000000003089 [Eh]
    Ind20,r             =    -0.000000005807 [Eh]
    Exch-Ind20,r (A<-B) =     0.000000000000 [Eh]
    Exch-Ind20,r (B<-A) =     0.000000000000 [Eh]
    Exch-Ind20,r        =     0.000000000000 [Eh]
    Disp20              =    -0.000000838830 [Eh]
    Disp20 (SS)         =    -0.000000419415 [Eh]
    Disp20 (OS)         =    -0.000000419415 [Eh]
    Exch-Disp20         =     0.000000000000 [Eh]
    Exch-Disp20 (SS)    =     0.000000000000 [Eh]
    Exch-Disp20 (OS)    =     0.000000000000 [Eh]

    SAPT Results
  --------------------------------------------------------------------------------------------------------
    Electrostatics                 -0.00289480 [mEh]      -0.00181652 [kcal/mol]      -0.00760030 [kJ/mol]
      Elst10,r                     -0.00289480 [mEh]      -0.00181652 [kcal/mol]      -0.00760030 [kJ/mol]

    Exchange                        0.00000000 [mEh]       0.00000000 [kcal/mol]       0.00000000 [kJ/mol]
      Exch10                        0.00000000 [mEh]       0.00000000 [kcal/mol]       0.00000000 [kJ/mol]
      Exch10(S^2)                   0.00000000 [mEh]       0.00000000 [kcal/mol]       0.00000000 [kJ/mol]

    Induction                       0.00000755 [mEh]       0.00000474 [kcal/mol]       0.00001982 [kJ/mol]
      Ind20,r                      -0.00000581 [mEh]      -0.00000364 [kcal/mol]      -0.00001525 [kJ/mol]
      Exch-Ind20,r                  0.00000000 [mEh]       0.00000000 [kcal/mol]       0.00000000 [kJ/mol]
      delta HF,r (2)                0.00001336 [mEh]       0.00000838 [kcal/mol]       0.00003506 [kJ/mol]

    Dispersion                     -0.00083883 [mEh]      -0.00052637 [kcal/mol]      -0.00220235 [kJ/mol]
      Disp20                       -0.00083883 [mEh]      -0.00052637 [kcal/mol]      -0.00220235 [kJ/mol]
      Exch-Disp20                   0.00000000 [mEh]       0.00000000 [kcal/mol]       0.00000000 [kJ/mol]
      Disp20 (SS)                  -0.00041942 [mEh]      -0.00026319 [kcal/mol]      -0.00110117 [kJ/mol]
      Disp20 (OS)                  -0.00041942 [mEh]      -0.00026319 [kcal/mol]      -0.00110117 [kJ/mol]
      Exch-Disp20 (SS)              0.00000000 [mEh]       0.00000000 [kcal/mol]       0.00000000 [kJ/mol]
      Exch-Disp20 (OS)              0.00000000 [mEh]       0.00000000 [kcal/mol]       0.00000000 [kJ/mol]

  Total HF                         -0.00288725 [mEh]      -0.00181178 [kcal/mol]      -0.00758049 [kJ/mol]
  Total SAPT0                      -0.00372608 [mEh]      -0.00233815 [kcal/mol]      -0.00978283 [kJ/mol]

  Special recipe for scaled SAPT0 (see Manual):
    Electrostatics sSAPT0          -0.00289480 [mEh]      -0.00181652 [kcal/mol]      -0.00760030 [kJ/mol]
    Exchange sSAPT0                 0.00000000 [mEh]       0.00000000 [kcal/mol]       0.00000000 [kJ/mol]
    Induction sSAPT0                0.00000755 [mEh]       0.00000474 [kcal/mol]       0.00001982 [kJ/mol]
    Dispersion sSAPT0              -0.00083883 [mEh]      -0.00052637 [kcal/mol]      -0.00220235 [kJ/mol]
  Total sSAPT0                     -0.00372608 [mEh]      -0.00233815 [kcal/mol]      -0.00978283 [kJ/mol]
  --------------------------------------------------------------------------------------------------------

*** tstop() called on atl1-1-01-013-7-l.pace.gatech.edu at Mon Nov 29 16:12:28 2021
Module time:
	user time   =      37.28 seconds =       0.62 minutes
	system time =       9.16 seconds =       0.15 minutes
	total time  =         72 seconds =       1.20 minutes
Total time:
	user time   =      97.55 seconds =       1.63 minutes
	system time =      11.14 seconds =       0.19 minutes
	total time  =        106 seconds =       1.77 minutes


Warning! sapt0 does not have an associated derived wavefunction.The returned wavefunction is the dimer SCF wavefunction.


    Psi4 stopped on: Monday, 29 November 2021 04:12PM
    Psi4 wall time for execution: 0:01:45.81

*** Psi4 exiting successfully. Buy a developer a beer!
