
    -----------------------------------------------------------------------
          Psi4: An Open-Source Ab Initio Electronic Structure Package
                               Psi4 1.4.1 release

                         Git: Rev {HEAD} cd00f19 


    D. G. A. Smith, L. A. Burns, A. C. Simmonett, R. M. Parrish,
    M. C. Schieber, R. Galvelis, P. Kraus, H. Kruse, R. Di Remigio,
    A. Alenaizan, A. M. James, S. Lehtola, J. P. Misiewicz, M. Scheurer,
    R. A. Shaw, J. B. Schriber, Y. Xie, Z. L. Glick, D. A. Sirianni,
    J. S. O'Brien, J. M. Waldrop, A. Kumar, E. G. Hohenstein,
    B. P. Pritchard, B. R. Brooks, H. F. Schaefer III, A. Yu. Sokolov,
    K. Patkowski, A. E. DePrince III, U. Bozkaya, R. A. King,
    F. A. Evangelista, J. M. Turney, T. D. Crawford, C. D. Sherrill,
    J. Chem. Phys. 152(18) 184108 (2020). https://doi.org/10.1063/5.0006002

                            Additional Code Authors
    E. T. Seidl, C. L. Janssen, E. F. Valeev, M. L. Leininger,
    J. F. Gonthier, R. M. Richard, H. R. McAlexander, M. Saitow, X. Wang,
    P. Verma, and M. H. Lechner

             Previous Authors, Complete List of Code Contributors,
                       and Citations for Specific Modules
    https://github.com/psi4/psi4/blob/master/codemeta.json
    https://github.com/psi4/psi4/graphs/contributors
    http://psicode.org/psi4manual/master/introduction.html#citing-psifour

    -----------------------------------------------------------------------


    Psi4 started on: Monday, 29 November 2021 04:10PM

    Process ID: 428449
    Host:       atl1-1-01-013-7-l.pace.gatech.edu
    PSIDATADIR: /storage/home/hhive1/csargent30/data/miniconda3/envs/psi4/share/psi4
    Memory:     500.0 MiB
    Threads:    2
    
  ==> Input File <==

--------------------------------------------------------------------------
# PSI4 file produced by CrystaLattE

# Generated from:               pyrazine.xyz
# Psithon input for N-mer:      2mer-0+222
# Number of atoms per monomer:  [10, 10]
# Number of replicas:           4
# COM priority:                 2.270022709729e-05
# Minimum COM separations:      18.689 
# Separation priority:          4.892356946787e-05
# Minimum monomer separations:  14.469 
# Cutoff priority:              1.789331665259e-06
# Nuclear repulsion energy:     475.16311816494635

memory 7 GB

molecule Dimer_0_222 {
  N           -1.33084758       0.98032658       0.42627037 
  N            3.95377333       0.98032658       0.42627037 
  H            3.56713674       4.35218569      -0.94230973 
  H           -0.94421098       4.35218569      -0.94230973 
  H           -0.94421098      -2.39153253       1.79485047 
  H            3.56713674      -2.39153253       1.79485047 
  C            2.62292576       2.94097974      -0.42627037 
  C            0.00000000       2.94097974      -0.42627037 
  C            0.00000000      -0.98032658       1.27881112 
  C            2.62292576      -0.98032658       1.27881112 
--
  N          -18.95329959     -21.13022498      21.58988017 
  N          -13.66867868     -21.13022498      21.58988017 
  H          -14.05531527     -17.75836587      20.22130007 
  H          -18.56666299     -17.75836587      20.22130007 
  H          -18.56666299     -24.50208409      22.95846027 
  H          -14.05531527     -24.50208409      22.95846027 
  C          -14.99952625     -19.16957182      20.73733942 
  C          -17.62245201     -19.16957182      20.73733942 
  C          -17.62245201     -23.09087814      22.44242092 
  C          -14.99952625     -23.09087814      22.44242092 
units = au
no_com
no_reorient
}

set {
  e_convergence 10
  d_convergence 10
  scf_type df
  mp2_type df
  cc_type df
  freeze_core true
}

energy('sapt0/aug-cc-pvdz')

--------------------------------------------------------------------------

  Memory set to   6.519 GiB by Python driver.

Scratch directory: /tmp/

Scratch directory: /tmp/

  //>>>>>>>>>>>>>>>>>>>>>>>>>>>>>>>>>>>//
  //              Dimer HF             //
  //<<<<<<<<<<<<<<<<<<<<<<<<<<<<<<<<<<<//


*** tstart() called on atl1-1-01-013-7-l.pace.gatech.edu
*** at Mon Nov 29 16:10:42 2021

   => Loading Basis Set <=

    Name: AUG-CC-PVDZ
    Role: ORBITAL
    Keyword: BASIS
    atoms 1-2, 11-12  entry N          line   218 file /storage/home/hhive1/csargent30/data/miniconda3/envs/psi4/share/psi4/basis/aug-cc-pvdz.gbs 
    atoms 3-6, 13-16  entry H          line    40 file /storage/home/hhive1/csargent30/data/miniconda3/envs/psi4/share/psi4/basis/aug-cc-pvdz.gbs 
    atoms 7-10, 17-20 entry C          line   182 file /storage/home/hhive1/csargent30/data/miniconda3/envs/psi4/share/psi4/basis/aug-cc-pvdz.gbs 


         ---------------------------------------------------------
                                   SCF
               by Justin Turney, Rob Parrish, Andy Simmonett
                          and Daniel G. A. Smith
                              RHF Reference
                        2 Threads,   6675 MiB Core
         ---------------------------------------------------------

  ==> Geometry <==

    Molecular point group: c1
    Full point group: C1

    Geometry (in Bohr), charge = 0, multiplicity = 1:

       Center              X                  Y                   Z               Mass       
    ------------   -----------------  -----------------  -----------------  -----------------
         N           -1.330847580000     0.980326580000     0.426270370000    14.003074004430
         N            3.953773330000     0.980326580000     0.426270370000    14.003074004430
         H            3.567136740000     4.352185690000    -0.942309730000     1.007825032230
         H           -0.944210980000     4.352185690000    -0.942309730000     1.007825032230
         H           -0.944210980000    -2.391532530000     1.794850470000     1.007825032230
         H            3.567136740000    -2.391532530000     1.794850470000     1.007825032230
         C            2.622925760000     2.940979740000    -0.426270370000    12.000000000000
         C            0.000000000000     2.940979740000    -0.426270370000    12.000000000000
         C            0.000000000000    -0.980326580000     1.278811120000    12.000000000000
         C            2.622925760000    -0.980326580000     1.278811120000    12.000000000000
         N          -18.953299590000   -21.130224980000    21.589880170000    14.003074004430
         N          -13.668678680000   -21.130224980000    21.589880170000    14.003074004430
         H          -14.055315270000   -17.758365870000    20.221300070000     1.007825032230
         H          -18.566662990000   -17.758365870000    20.221300070000     1.007825032230
         H          -18.566662990000   -24.502084090000    22.958460270000     1.007825032230
         H          -14.055315270000   -24.502084090000    22.958460270000     1.007825032230
         C          -14.999526250000   -19.169571820000    20.737339420000    12.000000000000
         C          -17.622452010000   -19.169571820000    20.737339420000    12.000000000000
         C          -17.622452010000   -23.090878140000    22.442420920000    12.000000000000
         C          -14.999526250000   -23.090878140000    22.442420920000    12.000000000000

  Running in c1 symmetry.

  Rotational constants: A =      0.07509  B =      0.00063  C =      0.00063 [cm^-1]
  Rotational constants: A =   2251.21574  B =     18.98429  C =     18.88780 [MHz]
  Nuclear repulsion =  475.163118091866750

  Charge       = 0
  Multiplicity = 1
  Electrons    = 84
  Nalpha       = 42
  Nbeta        = 42

  ==> Algorithm <==

  SCF Algorithm Type is DF.
  DIIS enabled.
  MOM disabled.
  Fractional occupation disabled.
  Guess Type is SAD.
  Energy threshold   = 1.00e-10
  Density threshold  = 1.00e-10
  Integral threshold = 1.00e-12

  ==> Primary Basis <==

  Basis Set: AUG-CC-PVDZ
    Blend: AUG-CC-PVDZ
    Number of shells: 148
    Number of basis functions: 348
    Number of Cartesian functions: 372
    Spherical Harmonics?: true
    Max angular momentum: 2

   => Loading Basis Set <=

    Name: (AUG-CC-PVDZ AUX)
    Role: JKFIT
    Keyword: DF_BASIS_SCF
    atoms 1-2, 11-12  entry N          line   212 file /storage/home/hhive1/csargent30/data/miniconda3/envs/psi4/share/psi4/basis/aug-cc-pvdz-jkfit.gbs 
    atoms 3-6, 13-16  entry H          line    70 file /storage/home/hhive1/csargent30/data/miniconda3/envs/psi4/share/psi4/basis/aug-cc-pvdz-jkfit.gbs 
    atoms 7-10, 17-20 entry C          line   154 file /storage/home/hhive1/csargent30/data/miniconda3/envs/psi4/share/psi4/basis/aug-cc-pvdz-jkfit.gbs 

  ==> Integral Setup <==

  ==> DiskDFJK: Density-Fitted J/K Matrices <==

    J tasked:                  Yes
    K tasked:                  Yes
    wK tasked:                  No
    OpenMP threads:              2
    Integrals threads:           2
    Memory [MiB]:             5006
    Algorithm:                Core
    Integral Cache:           SAVE
    Schwarz Cutoff:          1E-12
    Fitting Condition:       1E-10

   => Auxiliary Basis Set <=

  Basis Set: (AUG-CC-PVDZ AUX)
    Blend: AUG-CC-PVDZ-JKFIT
    Number of shells: 432
    Number of basis functions: 1288
    Number of Cartesian functions: 1492
    Spherical Harmonics?: true
    Max angular momentum: 3

  Minimum eigenvalue in the overlap matrix is 9.4804888588E-06.
  Reciprocal condition number of the overlap matrix is 7.3944702412E-07.
    Using symmetric orthogonalization.

  ==> Pre-Iterations <==

  SCF Guess: Superposition of Atomic Densities via on-the-fly atomic UHF (no occupation information).

   -------------------------
    Irrep   Nso     Nmo    
   -------------------------
     A        348     348 
   -------------------------
    Total     348     348
   -------------------------

  ==> Iterations <==

                           Total Energy        Delta E     RMS |[F,P]|

   @DF-RHF iter SAD:  -524.65046250967134   -5.24650e+02   0.00000e+00 
   @DF-RHF iter   1:  -525.07881962588931   -4.28357e-01   1.58371e-03 DIIS
   @DF-RHF iter   2:  -525.25758026581343   -1.78761e-01   5.80761e-04 DIIS
   @DF-RHF iter   3:  -525.27724906323670   -1.96688e-02   1.81367e-04 DIIS
   @DF-RHF iter   4:  -525.27969851615387   -2.44945e-03   5.33990e-05 DIIS
   @DF-RHF iter   5:  -525.27987770698110   -1.79191e-04   1.06852e-05 DIIS
   @DF-RHF iter   6:  -525.27989080713064   -1.31001e-05   3.46849e-06 DIIS
   @DF-RHF iter   7:  -525.27989271174124   -1.90461e-06   9.05379e-07 DIIS
   @DF-RHF iter   8:  -525.27989285947808   -1.47737e-07   1.42473e-07 DIIS
   @DF-RHF iter   9:  -525.27989286342677   -3.94868e-09   4.12021e-08 DIIS
   @DF-RHF iter  10:  -525.27989286359923   -1.72463e-10   2.09218e-08 DIIS
   @DF-RHF iter  11:  -525.27989286363857   -3.93356e-11   2.70437e-09 DIIS
   @DF-RHF iter  12:  -525.27989286364027   -1.70530e-12   4.57666e-10 DIIS
   @DF-RHF iter  13:  -525.27989286364027    0.00000e+00   1.23844e-10 DIIS
   @DF-RHF iter  14:  -525.27989286364050   -2.27374e-13   5.59762e-11 DIIS
  Energy and wave function converged.


  ==> Post-Iterations <==

    Orbital Energies [Eh]
    ---------------------

    Doubly Occupied:                                                      

       1A    -15.598167     2A    -15.598167     3A    -15.598142  
       4A    -15.598142     5A    -11.274330     6A    -11.274330  
       7A    -11.274285     8A    -11.274285     9A    -11.273066  
      10A    -11.273066    11A    -11.273060    12A    -11.273060  
      13A     -1.313438    14A     -1.313438    15A     -1.224267  
      16A     -1.224267    17A     -1.076894    18A     -1.076894  
      19A     -0.922754    20A     -0.922754    21A     -0.919373  
      22A     -0.919373    23A     -0.760728    24A     -0.760728  
      25A     -0.738492    26A     -0.738492    27A     -0.706305  
      28A     -0.706305    29A     -0.647778    30A     -0.647778  
      31A     -0.580802    32A     -0.580802    33A     -0.574461  
      34A     -0.574461    35A     -0.497205    36A     -0.497205  
      37A     -0.434380    38A     -0.434380    39A     -0.415948  
      40A     -0.415948    41A     -0.360015    42A     -0.360015  

    Virtual:                                                              

      43A      0.034401    44A      0.034425    45A      0.040634  
      46A      0.040686    47A      0.048223    48A      0.048356  
      49A      0.058402    50A      0.058599    51A      0.067023  
      52A      0.067023    53A      0.099328    54A      0.099328  
      55A      0.100860    56A      0.100861    57A      0.114111  
      58A      0.114111    59A      0.114858    60A      0.114858  
      61A      0.123579    62A      0.123787    63A      0.125229  
      64A      0.125230    65A      0.128567    66A      0.128577  
      67A      0.132802    68A      0.132802    69A      0.158035  
      70A      0.158189    71A      0.160917    72A      0.161025  
      73A      0.161131    74A      0.161390    75A      0.163695  
      76A      0.163973    77A      0.175028    78A      0.175155  
      79A      0.186826    80A      0.186826    81A      0.203820  
      82A      0.203824    83A      0.212425    84A      0.212460  
      85A      0.250425    86A      0.250425    87A      0.267660  
      88A      0.267661    89A      0.277916    90A      0.278010  
      91A      0.287718    92A      0.287719    93A      0.293115  
      94A      0.293118    95A      0.295456    96A      0.295849  
      97A      0.314740    98A      0.314742    99A      0.320366  
     100A      0.320366   101A      0.355211   102A      0.355460  
     103A      0.357819   104A      0.357819   105A      0.364568  
     106A      0.364569   107A      0.382423   108A      0.382561  
     109A      0.398785   110A      0.398824   111A      0.409782  
     112A      0.409826   113A      0.425305   114A      0.425423  
     115A      0.433837   116A      0.433837   117A      0.437073  
     118A      0.437182   119A      0.451983   120A      0.452015  
     121A      0.471374   122A      0.471411   123A      0.492049  
     124A      0.492049   125A      0.504770   126A      0.504774  
     127A      0.514824   128A      0.514824   129A      0.524442  
     130A      0.524470   131A      0.528565   132A      0.528591  
     133A      0.554486   134A      0.554488   135A      0.570442  
     136A      0.570448   137A      0.587443   138A      0.587444  
     139A      0.591406   140A      0.591421   141A      0.593707  
     142A      0.593708   143A      0.608836   144A      0.608840  
     145A      0.643424   146A      0.643424   147A      0.644200  
     148A      0.644262   149A      0.685041   150A      0.685048  
     151A      0.687667   152A      0.687668   153A      0.689837  
     154A      0.689845   155A      0.690146   156A      0.690357  
     157A      0.694738   158A      0.694739   159A      0.703656  
     160A      0.703822   161A      0.746463   162A      0.746477  
     163A      0.754728   164A      0.754728   165A      0.766873  
     166A      0.766873   167A      0.781313   168A      0.781313  
     169A      0.799717   170A      0.799734   171A      0.802608  
     172A      0.802631   173A      0.818923   174A      0.818925  
     175A      0.830979   176A      0.830979   177A      0.847404  
     178A      0.847438   179A      0.880454   180A      0.880454  
     181A      0.886319   182A      0.886320   183A      0.894592  
     184A      0.894592   185A      0.929179   186A      0.929184  
     187A      0.939353   188A      0.939397   189A      0.949207  
     190A      0.949225   191A      0.996560   192A      0.996560  
     193A      0.998814   194A      0.998815   195A      1.012922  
     196A      1.012922   197A      1.033238   198A      1.033320  
     199A      1.051103   200A      1.051104   201A      1.089286  
     202A      1.089290   203A      1.100352   204A      1.100353  
     205A      1.122092   206A      1.122125   207A      1.123953  
     208A      1.123954   209A      1.134267   210A      1.134277  
     211A      1.158623   212A      1.158676   213A      1.173473  
     214A      1.173474   215A      1.235320   216A      1.235329  
     217A      1.238712   218A      1.238716   219A      1.309565  
     220A      1.309600   221A      1.331053   222A      1.331061  
     223A      1.414189   224A      1.414194   225A      1.451432  
     226A      1.451436   227A      1.486037   228A      1.486051  
     229A      1.487981   230A      1.487984   231A      1.499105  
     232A      1.499135   233A      1.502747   234A      1.502762  
     235A      1.518159   236A      1.518164   237A      1.572594  
     238A      1.572595   239A      1.574093   240A      1.574109  
     241A      1.587735   242A      1.587756   243A      1.635888  
     244A      1.635894   245A      1.640414   246A      1.640415  
     247A      1.648094   248A      1.648162   249A      1.676461  
     250A      1.676462   251A      1.716899   252A      1.716899  
     253A      1.746507   254A      1.746507   255A      1.755013  
     256A      1.755014   257A      1.783665   258A      1.783677  
     259A      1.815637   260A      1.815637   261A      1.893232  
     262A      1.893234   263A      1.916045   264A      1.916047  
     265A      1.964738   266A      1.964738   267A      1.987582  
     268A      1.987583   269A      2.031110   270A      2.031112  
     271A      2.091456   272A      2.091459   273A      2.100914  
     274A      2.100959   275A      2.142862   276A      2.142862  
     277A      2.163264   278A      2.163265   279A      2.190398  
     280A      2.190398   281A      2.193168   282A      2.193253  
     283A      2.200285   284A      2.200294   285A      2.202320  
     286A      2.202320   287A      2.227532   288A      2.227537  
     289A      2.312668   290A      2.312670   291A      2.355134  
     292A      2.355143   293A      2.430865   294A      2.430865  
     295A      2.438885   296A      2.438886   297A      2.519287  
     298A      2.519289   299A      2.522304   300A      2.522304  
     301A      2.584673   302A      2.584674   303A      2.606174  
     304A      2.606174   305A      2.665133   306A      2.665133  
     307A      2.675317   308A      2.675317   309A      2.686300  
     310A      2.686307   311A      2.713859   312A      2.713927  
     313A      2.718496   314A      2.718504   315A      2.843922  
     316A      2.843922   317A      2.865669   318A      2.865669  
     319A      2.939103   320A      2.939106   321A      3.001758  
     322A      3.001770   323A      3.017777   324A      3.017783  
     325A      3.032087   326A      3.032102   327A      3.094037  
     328A      3.094055   329A      3.220090   330A      3.220360  
     331A      3.255888   332A      3.255890   333A      3.284782  
     334A      3.284794   335A      3.366047   336A      3.366049  
     337A      3.413274   338A      3.413279   339A      3.514825  
     340A      3.514831   341A      3.590563   342A      3.590565  
     343A      3.627675   344A      3.627679   345A      3.977125  
     346A      3.977166   347A      4.253393   348A      4.253395  

    Final Occupation by Irrep:
              A 
    DOCC [    42 ]

  @DF-RHF Final Energy:  -525.27989286364050

   => Energetics <=

    Nuclear Repulsion Energy =            475.1631180918667496
    One-Electron Energy =               -1651.0304596460819084
    Two-Electron Energy =                 650.5874486905747744
    Total Energy =                       -525.2798928636404980

Computation Completed


Properties will be evaluated at   0.000000,   0.000000,   0.000000 [a0]

Properties computed using the SCF density matrix

  Nuclear Dipole Moment: [e a0]
     X:  -629.9801      Y:  -846.2957      Z:   924.6783

  Electronic Dipole Moment: [e a0]
     X:   629.9801      Y:   846.2957      Z:  -924.6783

  Dipole Moment: [e a0]
     X:     0.0000      Y:     0.0000      Z:    -0.0000     Total:     0.0000

  Dipole Moment: [D]
     X:     0.0000      Y:     0.0000      Z:    -0.0000     Total:     0.0000


*** tstop() called on atl1-1-01-013-7-l.pace.gatech.edu at Mon Nov 29 16:10:57 2021
Module time:
	user time   =      26.60 seconds =       0.44 minutes
	system time =       1.04 seconds =       0.02 minutes
	total time  =         15 seconds =       0.25 minutes
Total time:
	user time   =      26.60 seconds =       0.44 minutes
	system time =       1.04 seconds =       0.02 minutes
	total time  =         15 seconds =       0.25 minutes

  //>>>>>>>>>>>>>>>>>>>>>>>>>>>>>>>>>>>//
  //            Monomer A HF           //
  //<<<<<<<<<<<<<<<<<<<<<<<<<<<<<<<<<<<//


*** tstart() called on atl1-1-01-013-7-l.pace.gatech.edu
*** at Mon Nov 29 16:10:57 2021

   => Loading Basis Set <=

    Name: AUG-CC-PVDZ
    Role: ORBITAL
    Keyword: BASIS
    atoms 1-2, 11-12  entry N          line   218 file /storage/home/hhive1/csargent30/data/miniconda3/envs/psi4/share/psi4/basis/aug-cc-pvdz.gbs 
    atoms 3-6, 13-16  entry H          line    40 file /storage/home/hhive1/csargent30/data/miniconda3/envs/psi4/share/psi4/basis/aug-cc-pvdz.gbs 
    atoms 7-10, 17-20 entry C          line   182 file /storage/home/hhive1/csargent30/data/miniconda3/envs/psi4/share/psi4/basis/aug-cc-pvdz.gbs 


         ---------------------------------------------------------
                                   SCF
               by Justin Turney, Rob Parrish, Andy Simmonett
                          and Daniel G. A. Smith
                              RHF Reference
                        2 Threads,   6675 MiB Core
         ---------------------------------------------------------

  ==> Geometry <==

    Molecular point group: c1
    Full point group: C1

    Geometry (in Bohr), charge = 0, multiplicity = 1:

       Center              X                  Y                   Z               Mass       
    ------------   -----------------  -----------------  -----------------  -----------------
         N           -1.330847580000     0.980326580000     0.426270370000    14.003074004430
         N            3.953773330000     0.980326580000     0.426270370000    14.003074004430
         H            3.567136740000     4.352185690000    -0.942309730000     1.007825032230
         H           -0.944210980000     4.352185690000    -0.942309730000     1.007825032230
         H           -0.944210980000    -2.391532530000     1.794850470000     1.007825032230
         H            3.567136740000    -2.391532530000     1.794850470000     1.007825032230
         C            2.622925760000     2.940979740000    -0.426270370000    12.000000000000
         C            0.000000000000     2.940979740000    -0.426270370000    12.000000000000
         C            0.000000000000    -0.980326580000     1.278811120000    12.000000000000
         C            2.622925760000    -0.980326580000     1.278811120000    12.000000000000
      Gh(N)         -18.953299590000   -21.130224980000    21.589880170000    14.003074004430
      Gh(N)         -13.668678680000   -21.130224980000    21.589880170000    14.003074004430
      Gh(H)         -14.055315270000   -17.758365870000    20.221300070000     1.007825032230
      Gh(H)         -18.566662990000   -17.758365870000    20.221300070000     1.007825032230
      Gh(H)         -18.566662990000   -24.502084090000    22.958460270000     1.007825032230
      Gh(H)         -14.055315270000   -24.502084090000    22.958460270000     1.007825032230
      Gh(C)         -14.999526250000   -19.169571820000    20.737339420000    12.000000000000
      Gh(C)         -17.622452010000   -19.169571820000    20.737339420000    12.000000000000
      Gh(C)         -17.622452010000   -23.090878140000    22.442420920000    12.000000000000
      Gh(C)         -14.999526250000   -23.090878140000    22.442420920000    12.000000000000

  Running in c1 symmetry.

  Rotational constants: A =      0.07509  B =      0.00063  C =      0.00063 [cm^-1]
  Rotational constants: A =   2251.21574  B =     18.98429  C =     18.88780 [MHz]
  Nuclear repulsion =  212.551731110485349

  Charge       = 0
  Multiplicity = 1
  Electrons    = 42
  Nalpha       = 21
  Nbeta        = 21

  ==> Algorithm <==

  SCF Algorithm Type is DF.
  DIIS enabled.
  MOM disabled.
  Fractional occupation disabled.
  Guess Type is SAD.
  Energy threshold   = 1.00e-10
  Density threshold  = 1.00e-10
  Integral threshold = 1.00e-12

  ==> Primary Basis <==

  Basis Set: AUG-CC-PVDZ
    Blend: AUG-CC-PVDZ
    Number of shells: 148
    Number of basis functions: 348
    Number of Cartesian functions: 372
    Spherical Harmonics?: true
    Max angular momentum: 2

   => Loading Basis Set <=

    Name: (AUG-CC-PVDZ AUX)
    Role: JKFIT
    Keyword: DF_BASIS_SCF
    atoms 1-2, 11-12  entry N          line   212 file /storage/home/hhive1/csargent30/data/miniconda3/envs/psi4/share/psi4/basis/aug-cc-pvdz-jkfit.gbs 
    atoms 3-6, 13-16  entry H          line    70 file /storage/home/hhive1/csargent30/data/miniconda3/envs/psi4/share/psi4/basis/aug-cc-pvdz-jkfit.gbs 
    atoms 7-10, 17-20 entry C          line   154 file /storage/home/hhive1/csargent30/data/miniconda3/envs/psi4/share/psi4/basis/aug-cc-pvdz-jkfit.gbs 

  ==> Integral Setup <==

  ==> DiskDFJK: Density-Fitted J/K Matrices <==

    J tasked:                  Yes
    K tasked:                  Yes
    wK tasked:                  No
    OpenMP threads:              2
    Integrals threads:           2
    Memory [MiB]:             5006
    Algorithm:                Core
    Integral Cache:           LOAD
    Schwarz Cutoff:          1E-12
    Fitting Condition:       1E-10

   => Auxiliary Basis Set <=

  Basis Set: (AUG-CC-PVDZ AUX)
    Blend: AUG-CC-PVDZ-JKFIT
    Number of shells: 432
    Number of basis functions: 1288
    Number of Cartesian functions: 1492
    Spherical Harmonics?: true
    Max angular momentum: 3

  Minimum eigenvalue in the overlap matrix is 9.4804888588E-06.
  Reciprocal condition number of the overlap matrix is 7.3944702412E-07.
    Using symmetric orthogonalization.

  ==> Pre-Iterations <==

  SCF Guess: Superposition of Atomic Densities via on-the-fly atomic UHF (no occupation information).

   -------------------------
    Irrep   Nso     Nmo    
   -------------------------
     A        348     348 
   -------------------------
    Total     348     348
   -------------------------

  ==> Iterations <==

                           Total Energy        Delta E     RMS |[F,P]|

   @DF-RHF iter SAD:  -262.32523125850321   -2.62325e+02   0.00000e+00 
   @DF-RHF iter   1:  -262.53940797871280   -2.14177e-01   1.11985e-03 DIIS
   @DF-RHF iter   2:  -262.62878837161401   -8.93804e-02   4.10664e-04 DIIS
   @DF-RHF iter   3:  -262.63862291617824   -9.83454e-03   1.28248e-04 DIIS
   @DF-RHF iter   4:  -262.63984766943776   -1.22475e-03   3.77599e-05 DIIS
   @DF-RHF iter   5:  -262.63993726989975   -8.96005e-05   7.55558e-06 DIIS
   @DF-RHF iter   6:  -262.63994382015903   -6.55026e-06   2.45264e-06 DIIS
   @DF-RHF iter   7:  -262.63994477253198   -9.52373e-07   6.40130e-07 DIIS
   @DF-RHF iter   8:  -262.63994484642075   -7.38888e-08   9.91693e-08 DIIS
   @DF-RHF iter   9:  -262.63994484840634   -1.98560e-09   1.88228e-08 DIIS
   @DF-RHF iter  10:  -262.63994484847677   -7.04290e-11   3.19151e-09 DIIS
   @DF-RHF iter  11:  -262.63994484847979   -3.01270e-12   5.22317e-10 DIIS
   @DF-RHF iter  12:  -262.63994484847973    5.68434e-14   9.54310e-11 DIIS
  Energy and wave function converged.


  ==> Post-Iterations <==

    Orbital Energies [Eh]
    ---------------------

    Doubly Occupied:                                                      

       1A    -15.598072     2A    -15.598053     3A    -11.274239  
       4A    -11.274194     5A    -11.272975     6A    -11.272969  
       7A     -1.313347     8A     -1.224176     9A     -1.076803  
      10A     -0.922662    11A     -0.919282    12A     -0.760637  
      13A     -0.738402    14A     -0.706214    15A     -0.647687  
      16A     -0.580711    17A     -0.574369    18A     -0.497113  
      19A     -0.434288    20A     -0.415855    21A     -0.359924  

    Virtual:                                                              

      22A      0.022271    23A      0.034497    24A      0.039352  
      25A      0.040734    26A      0.041012    27A      0.048383  
      28A      0.058530    29A      0.058744    30A      0.067113  
      31A      0.079517    32A      0.084892    33A      0.099419  
      34A      0.100948    35A      0.103828    36A      0.108343  
      37A      0.108684    38A      0.114201    39A      0.114951  
      40A      0.122336    41A      0.123772    42A      0.125322  
      43A      0.125432    44A      0.128661    45A      0.130779  
      46A      0.132889    47A      0.133987    48A      0.151932  
      49A      0.152858    50A      0.158201    51A      0.159176  
      52A      0.161084    53A      0.161329    54A      0.163915  
      55A      0.175178    56A      0.176580    57A      0.186918  
      58A      0.197631    59A      0.203742    60A      0.203909  
      61A      0.206495    62A      0.212538    63A      0.222221  
      64A      0.233442    65A      0.239267    66A      0.250517  
      67A      0.255050    68A      0.267756    69A      0.270606  
      70A      0.278058    71A      0.287812    72A      0.293207  
      73A      0.295750    74A      0.302163    75A      0.314832  
      76A      0.320457    77A      0.320470    78A      0.327991  
      79A      0.331136    80A      0.343945    81A      0.355430  
      82A      0.357908    83A      0.364661    84A      0.380329  
      85A      0.382585    86A      0.385470    87A      0.398891  
      88A      0.401103    89A      0.409896    90A      0.419103  
      91A      0.424785    92A      0.425453    93A      0.433925  
      94A      0.437212    95A      0.441765    96A      0.452092  
      97A      0.460488    98A      0.460938    99A      0.471484  
     100A      0.475919   101A      0.478652   102A      0.492140  
     103A      0.504862   104A      0.507658   105A      0.514914  
     106A      0.523598   107A      0.524547   108A      0.528668  
     109A      0.535568   110A      0.554577   111A      0.557676  
     112A      0.561349   113A      0.564327   114A      0.570535  
     115A      0.581737   116A      0.587535   117A      0.591506  
     118A      0.593799   119A      0.595842   120A      0.608929  
     121A      0.614972   122A      0.619991   123A      0.636196  
     124A      0.643517   125A      0.644321   126A      0.649189  
     127A      0.651323   128A      0.679246   129A      0.685121  
     130A      0.685159   131A      0.687758   132A      0.689932  
     133A      0.690345   134A      0.694828   135A      0.703831  
     136A      0.719725   137A      0.728226   138A      0.746556  
     139A      0.746623   140A      0.754817   141A      0.766965  
     142A      0.775514   143A      0.781406   144A      0.793464  
     145A      0.799815   146A      0.802710   147A      0.810926  
     148A      0.811811   149A      0.819016   150A      0.824582  
     151A      0.831071   152A      0.847513   153A      0.847893  
     154A      0.849016   155A      0.868438   156A      0.880544  
     157A      0.886410   158A      0.887981   159A      0.894682  
     160A      0.905936   161A      0.928945   162A      0.929272  
     163A      0.939466   164A      0.947523   165A      0.949307  
     166A      0.970613   167A      0.976765   168A      0.986466  
     169A      0.996652   170A      0.998908   171A      1.013015  
     172A      1.032252   173A      1.033370   174A      1.046762  
     175A      1.051194   176A      1.076097   177A      1.089381  
     178A      1.090107   179A      1.100445   180A      1.122199  
     181A      1.124044   182A      1.130494   183A      1.134362  
     184A      1.140096   185A      1.158741   186A      1.168421  
     187A      1.170509   188A      1.173565   189A      1.192038  
     190A      1.193071   191A      1.200303   192A      1.222149  
     193A      1.235416   194A      1.238804   195A      1.250858  
     196A      1.307388   197A      1.309674   198A      1.318091  
     199A      1.326244   200A      1.329441   201A      1.331148  
     202A      1.346637   203A      1.389048   204A      1.414282  
     205A      1.448219   206A      1.451526   207A      1.455290  
     208A      1.478965   209A      1.486137   210A      1.487036  
     211A      1.488075   212A      1.499211   213A      1.502846  
     214A      1.518252   215A      1.572686   216A      1.574192  
     217A      1.587836   218A      1.635982   219A      1.640505  
     220A      1.648219   221A      1.659072   222A      1.676552  
     223A      1.697898   224A      1.716991   225A      1.746597  
     226A      1.755104   227A      1.783762   228A      1.815727  
     229A      1.893323   230A      1.916137   231A      1.964829  
     232A      1.987674   233A      2.031202   234A      2.070062  
     235A      2.091548   236A      2.101028   237A      2.102599  
     238A      2.119279   239A      2.142953   240A      2.156511  
     241A      2.159025   242A      2.163356   243A      2.190488  
     244A      2.193302   245A      2.194695   246A      2.200380  
     247A      2.202410   248A      2.227626   249A      2.234610  
     250A      2.241039   251A      2.249496   252A      2.309850  
     253A      2.312761   254A      2.319382   255A      2.355229  
     256A      2.384640   257A      2.419044   258A      2.430957  
     259A      2.435247   260A      2.438001   261A      2.438977  
     262A      2.472511   263A      2.486559   264A      2.498156  
     265A      2.519379   266A      2.522395   267A      2.524902  
     268A      2.545830   269A      2.568163   270A      2.584766  
     271A      2.592208   272A      2.606266   273A      2.625807  
     274A      2.665224   275A      2.675409   276A      2.686395  
     277A      2.713985   278A      2.716733   279A      2.718591  
     280A      2.726486   281A      2.767768   282A      2.844014  
     283A      2.865761   284A      2.903872   285A      2.939196  
     286A      2.947061   287A      2.955585   288A      2.973175  
     289A      3.001855   290A      3.017872   291A      3.032186  
     292A      3.058166   293A      3.065066   294A      3.094137  
     295A      3.113705   296A      3.220317   297A      3.245564  
     298A      3.255980   299A      3.284880   300A      3.289514  
     301A      3.321797   302A      3.337574   303A      3.340322  
     304A      3.348494   305A      3.351216   306A      3.366140  
     307A      3.412465   308A      3.413367   309A      3.470621  
     310A      3.501821   311A      3.514920   312A      3.521226  
     313A      3.590655   314A      3.604301   315A      3.605509  
     316A      3.627769   317A      3.700349   318A      3.818791  
     319A      3.830553   320A      3.940833   321A      3.968962  
     322A      3.977236   323A      4.011269   324A      4.194623  
     325A      4.242117   326A      4.253485   327A      4.441854  
     328A      4.546695   329A      4.579141   330A      4.867504  
     331A      4.976010   332A      5.057717   333A      5.261577  
     334A      5.316406   335A      5.630064   336A      5.691189  
     337A      5.827013   338A      5.952500   339A      6.283694  
     340A      6.306756   341A      6.453634   342A      6.631067  
     343A     18.125584   344A     18.207846   345A     19.017442  
     346A     19.342867   347A     25.286925   348A     25.374645  

    Final Occupation by Irrep:
              A 
    DOCC [    21 ]

  @DF-RHF Final Energy:  -262.63994484847973

   => Energetics <=

    Nuclear Repulsion Energy =            212.5517311104853491
    One-Electron Energy =                -775.4594096171227875
    Two-Electron Energy =                 300.2677336581577379
    Total Energy =                       -262.6399448484797290

Computation Completed


Properties will be evaluated at   0.000000,   0.000000,   0.000000 [a0]

Properties computed using the SCF density matrix

  Nuclear Dipole Moment: [e a0]
     X:    55.0814      Y:    41.1737      Z:    17.9034

  Electronic Dipole Moment: [e a0]
     X:   -55.0814      Y:   -41.1737      Z:   -17.9034

  Dipole Moment: [e a0]
     X:    -0.0000      Y:     0.0000      Z:    -0.0000     Total:     0.0000

  Dipole Moment: [D]
     X:    -0.0000      Y:     0.0000      Z:    -0.0000     Total:     0.0000


*** tstop() called on atl1-1-01-013-7-l.pace.gatech.edu at Mon Nov 29 16:11:06 2021
Module time:
	user time   =      16.44 seconds =       0.27 minutes
	system time =       0.51 seconds =       0.01 minutes
	total time  =          9 seconds =       0.15 minutes
Total time:
	user time   =      43.05 seconds =       0.72 minutes
	system time =       1.55 seconds =       0.03 minutes
	total time  =         24 seconds =       0.40 minutes

  //>>>>>>>>>>>>>>>>>>>>>>>>>>>>>>>>>>>//
  //            Monomer B HF           //
  //<<<<<<<<<<<<<<<<<<<<<<<<<<<<<<<<<<<//


*** tstart() called on atl1-1-01-013-7-l.pace.gatech.edu
*** at Mon Nov 29 16:11:06 2021

   => Loading Basis Set <=

    Name: AUG-CC-PVDZ
    Role: ORBITAL
    Keyword: BASIS
    atoms 1-2, 11-12  entry N          line   218 file /storage/home/hhive1/csargent30/data/miniconda3/envs/psi4/share/psi4/basis/aug-cc-pvdz.gbs 
    atoms 3-6, 13-16  entry H          line    40 file /storage/home/hhive1/csargent30/data/miniconda3/envs/psi4/share/psi4/basis/aug-cc-pvdz.gbs 
    atoms 7-10, 17-20 entry C          line   182 file /storage/home/hhive1/csargent30/data/miniconda3/envs/psi4/share/psi4/basis/aug-cc-pvdz.gbs 


         ---------------------------------------------------------
                                   SCF
               by Justin Turney, Rob Parrish, Andy Simmonett
                          and Daniel G. A. Smith
                              RHF Reference
                        2 Threads,   6675 MiB Core
         ---------------------------------------------------------

  ==> Geometry <==

    Molecular point group: c1
    Full point group: C1

    Geometry (in Bohr), charge = 0, multiplicity = 1:

       Center              X                  Y                   Z               Mass       
    ------------   -----------------  -----------------  -----------------  -----------------
      Gh(N)          -1.330847580000     0.980326580000     0.426270370000    14.003074004430
      Gh(N)           3.953773330000     0.980326580000     0.426270370000    14.003074004430
      Gh(H)           3.567136740000     4.352185690000    -0.942309730000     1.007825032230
      Gh(H)          -0.944210980000     4.352185690000    -0.942309730000     1.007825032230
      Gh(H)          -0.944210980000    -2.391532530000     1.794850470000     1.007825032230
      Gh(H)           3.567136740000    -2.391532530000     1.794850470000     1.007825032230
      Gh(C)           2.622925760000     2.940979740000    -0.426270370000    12.000000000000
      Gh(C)           0.000000000000     2.940979740000    -0.426270370000    12.000000000000
      Gh(C)           0.000000000000    -0.980326580000     1.278811120000    12.000000000000
      Gh(C)           2.622925760000    -0.980326580000     1.278811120000    12.000000000000
         N          -18.953299590000   -21.130224980000    21.589880170000    14.003074004430
         N          -13.668678680000   -21.130224980000    21.589880170000    14.003074004430
         H          -14.055315270000   -17.758365870000    20.221300070000     1.007825032230
         H          -18.566662990000   -17.758365870000    20.221300070000     1.007825032230
         H          -18.566662990000   -24.502084090000    22.958460270000     1.007825032230
         H          -14.055315270000   -24.502084090000    22.958460270000     1.007825032230
         C          -14.999526250000   -19.169571820000    20.737339420000    12.000000000000
         C          -17.622452010000   -19.169571820000    20.737339420000    12.000000000000
         C          -17.622452010000   -23.090878140000    22.442420920000    12.000000000000
         C          -14.999526250000   -23.090878140000    22.442420920000    12.000000000000

  Running in c1 symmetry.

  Rotational constants: A =      0.07509  B =      0.00063  C =      0.00063 [cm^-1]
  Rotational constants: A =   2251.21574  B =     18.98429  C =     18.88780 [MHz]
  Nuclear repulsion =  212.551731042300531

  Charge       = 0
  Multiplicity = 1
  Electrons    = 42
  Nalpha       = 21
  Nbeta        = 21

  ==> Algorithm <==

  SCF Algorithm Type is DF.
  DIIS enabled.
  MOM disabled.
  Fractional occupation disabled.
  Guess Type is SAD.
  Energy threshold   = 1.00e-10
  Density threshold  = 1.00e-10
  Integral threshold = 1.00e-12

  ==> Primary Basis <==

  Basis Set: AUG-CC-PVDZ
    Blend: AUG-CC-PVDZ
    Number of shells: 148
    Number of basis functions: 348
    Number of Cartesian functions: 372
    Spherical Harmonics?: true
    Max angular momentum: 2

   => Loading Basis Set <=

    Name: (AUG-CC-PVDZ AUX)
    Role: JKFIT
    Keyword: DF_BASIS_SCF
    atoms 1-2, 11-12  entry N          line   212 file /storage/home/hhive1/csargent30/data/miniconda3/envs/psi4/share/psi4/basis/aug-cc-pvdz-jkfit.gbs 
    atoms 3-6, 13-16  entry H          line    70 file /storage/home/hhive1/csargent30/data/miniconda3/envs/psi4/share/psi4/basis/aug-cc-pvdz-jkfit.gbs 
    atoms 7-10, 17-20 entry C          line   154 file /storage/home/hhive1/csargent30/data/miniconda3/envs/psi4/share/psi4/basis/aug-cc-pvdz-jkfit.gbs 

  ==> Integral Setup <==

  ==> DiskDFJK: Density-Fitted J/K Matrices <==

    J tasked:                  Yes
    K tasked:                  Yes
    wK tasked:                  No
    OpenMP threads:              2
    Integrals threads:           2
    Memory [MiB]:             5006
    Algorithm:                Core
    Integral Cache:           LOAD
    Schwarz Cutoff:          1E-12
    Fitting Condition:       1E-10

   => Auxiliary Basis Set <=

  Basis Set: (AUG-CC-PVDZ AUX)
    Blend: AUG-CC-PVDZ-JKFIT
    Number of shells: 432
    Number of basis functions: 1288
    Number of Cartesian functions: 1492
    Spherical Harmonics?: true
    Max angular momentum: 3

  Minimum eigenvalue in the overlap matrix is 9.4804888588E-06.
  Reciprocal condition number of the overlap matrix is 7.3944702412E-07.
    Using symmetric orthogonalization.

  ==> Pre-Iterations <==

  SCF Guess: Superposition of Atomic Densities via on-the-fly atomic UHF (no occupation information).

   -------------------------
    Irrep   Nso     Nmo    
   -------------------------
     A        348     348 
   -------------------------
    Total     348     348
   -------------------------

  ==> Iterations <==

                           Total Energy        Delta E     RMS |[F,P]|

   @DF-RHF iter SAD:  -262.32523125114352   -2.62325e+02   0.00000e+00 
   @DF-RHF iter   1:  -262.53940797745770   -2.14177e-01   1.11985e-03 DIIS
   @DF-RHF iter   2:  -262.62878837023999   -8.93804e-02   4.10664e-04 DIIS
   @DF-RHF iter   3:  -262.63862291475823   -9.83454e-03   1.28248e-04 DIIS
   @DF-RHF iter   4:  -262.63984766801730   -1.22475e-03   3.77599e-05 DIIS
   @DF-RHF iter   5:  -262.63993726847963   -8.96005e-05   7.55558e-06 DIIS
   @DF-RHF iter   6:  -262.63994381873891   -6.55026e-06   2.45264e-06 DIIS
   @DF-RHF iter   7:  -262.63994477111277   -9.52374e-07   6.40130e-07 DIIS
   @DF-RHF iter   8:  -262.63994484500068   -7.38879e-08   9.91693e-08 DIIS
   @DF-RHF iter   9:  -262.63994484698623   -1.98554e-09   1.88228e-08 DIIS
   @DF-RHF iter  10:  -262.63994484705694   -7.07132e-11   3.19151e-09 DIIS
   @DF-RHF iter  11:  -262.63994484705978   -2.84217e-12   5.22318e-10 DIIS
   @DF-RHF iter  12:  -262.63994484705978    0.00000e+00   9.54444e-11 DIIS
  Energy and wave function converged.


  ==> Post-Iterations <==

    Orbital Energies [Eh]
    ---------------------

    Doubly Occupied:                                                      

       1A    -15.598072     2A    -15.598053     3A    -11.274239  
       4A    -11.274194     5A    -11.272975     6A    -11.272969  
       7A     -1.313347     8A     -1.224176     9A     -1.076803  
      10A     -0.922662    11A     -0.919282    12A     -0.760637  
      13A     -0.738402    14A     -0.706214    15A     -0.647687  
      16A     -0.580711    17A     -0.574369    18A     -0.497113  
      19A     -0.434288    20A     -0.415855    21A     -0.359924  

    Virtual:                                                              

      22A      0.022271    23A      0.034497    24A      0.039352  
      25A      0.040734    26A      0.041012    27A      0.048383  
      28A      0.058530    29A      0.058744    30A      0.067113  
      31A      0.079517    32A      0.084892    33A      0.099419  
      34A      0.100948    35A      0.103828    36A      0.108343  
      37A      0.108684    38A      0.114201    39A      0.114951  
      40A      0.122336    41A      0.123772    42A      0.125322  
      43A      0.125432    44A      0.128661    45A      0.130779  
      46A      0.132889    47A      0.133987    48A      0.151932  
      49A      0.152858    50A      0.158201    51A      0.159176  
      52A      0.161084    53A      0.161329    54A      0.163915  
      55A      0.175178    56A      0.176580    57A      0.186918  
      58A      0.197631    59A      0.203742    60A      0.203909  
      61A      0.206495    62A      0.212538    63A      0.222221  
      64A      0.233442    65A      0.239267    66A      0.250517  
      67A      0.255050    68A      0.267756    69A      0.270606  
      70A      0.278057    71A      0.287812    72A      0.293207  
      73A      0.295749    74A      0.302163    75A      0.314832  
      76A      0.320457    77A      0.320470    78A      0.327991  
      79A      0.331136    80A      0.343945    81A      0.355430  
      82A      0.357908    83A      0.364661    84A      0.380329  
      85A      0.382585    86A      0.385470    87A      0.398891  
      88A      0.401103    89A      0.409896    90A      0.419103  
      91A      0.424785    92A      0.425453    93A      0.433925  
      94A      0.437212    95A      0.441765    96A      0.452092  
      97A      0.460488    98A      0.460938    99A      0.471483  
     100A      0.475919   101A      0.478652   102A      0.492140  
     103A      0.504862   104A      0.507658   105A      0.514914  
     106A      0.523598   107A      0.524547   108A      0.528668  
     109A      0.535568   110A      0.554577   111A      0.557676  
     112A      0.561349   113A      0.564327   114A      0.570535  
     115A      0.581737   116A      0.587535   117A      0.591506  
     118A      0.593799   119A      0.595842   120A      0.608929  
     121A      0.614972   122A      0.619991   123A      0.636196  
     124A      0.643517   125A      0.644321   126A      0.649189  
     127A      0.651323   128A      0.679246   129A      0.685121  
     130A      0.685159   131A      0.687758   132A      0.689932  
     133A      0.690345   134A      0.694828   135A      0.703830  
     136A      0.719725   137A      0.728226   138A      0.746556  
     139A      0.746623   140A      0.754817   141A      0.766965  
     142A      0.775514   143A      0.781406   144A      0.793464  
     145A      0.799815   146A      0.802710   147A      0.810926  
     148A      0.811811   149A      0.819016   150A      0.824582  
     151A      0.831071   152A      0.847513   153A      0.847893  
     154A      0.849016   155A      0.868438   156A      0.880544  
     157A      0.886410   158A      0.887981   159A      0.894682  
     160A      0.905936   161A      0.928945   162A      0.929272  
     163A      0.939466   164A      0.947523   165A      0.949307  
     166A      0.970613   167A      0.976765   168A      0.986466  
     169A      0.996652   170A      0.998908   171A      1.013015  
     172A      1.032252   173A      1.033370   174A      1.046762  
     175A      1.051194   176A      1.076097   177A      1.089381  
     178A      1.090107   179A      1.100445   180A      1.122199  
     181A      1.124044   182A      1.130494   183A      1.134362  
     184A      1.140096   185A      1.158741   186A      1.168421  
     187A      1.170509   188A      1.173565   189A      1.192038  
     190A      1.193071   191A      1.200303   192A      1.222149  
     193A      1.235416   194A      1.238804   195A      1.250858  
     196A      1.307388   197A      1.309674   198A      1.318091  
     199A      1.326244   200A      1.329441   201A      1.331148  
     202A      1.346637   203A      1.389048   204A      1.414282  
     205A      1.448219   206A      1.451526   207A      1.455290  
     208A      1.478965   209A      1.486137   210A      1.487036  
     211A      1.488075   212A      1.499211   213A      1.502846  
     214A      1.518252   215A      1.572686   216A      1.574192  
     217A      1.587836   218A      1.635982   219A      1.640505  
     220A      1.648219   221A      1.659072   222A      1.676552  
     223A      1.697898   224A      1.716991   225A      1.746597  
     226A      1.755104   227A      1.783762   228A      1.815727  
     229A      1.893323   230A      1.916137   231A      1.964829  
     232A      1.987674   233A      2.031202   234A      2.070062  
     235A      2.091548   236A      2.101028   237A      2.102599  
     238A      2.119279   239A      2.142953   240A      2.156511  
     241A      2.159025   242A      2.163355   243A      2.190488  
     244A      2.193302   245A      2.194695   246A      2.200380  
     247A      2.202410   248A      2.227626   249A      2.234610  
     250A      2.241039   251A      2.249496   252A      2.309850  
     253A      2.312761   254A      2.319382   255A      2.355229  
     256A      2.384640   257A      2.419044   258A      2.430957  
     259A      2.435247   260A      2.438001   261A      2.438977  
     262A      2.472511   263A      2.486559   264A      2.498156  
     265A      2.519379   266A      2.522395   267A      2.524902  
     268A      2.545830   269A      2.568163   270A      2.584766  
     271A      2.592208   272A      2.606266   273A      2.625807  
     274A      2.665224   275A      2.675409   276A      2.686395  
     277A      2.713985   278A      2.716733   279A      2.718591  
     280A      2.726486   281A      2.767768   282A      2.844014  
     283A      2.865761   284A      2.903872   285A      2.939196  
     286A      2.947061   287A      2.955585   288A      2.973175  
     289A      3.001855   290A      3.017872   291A      3.032186  
     292A      3.058166   293A      3.065066   294A      3.094137  
     295A      3.113705   296A      3.220317   297A      3.245564  
     298A      3.255980   299A      3.284880   300A      3.289514  
     301A      3.321797   302A      3.337574   303A      3.340322  
     304A      3.348494   305A      3.351216   306A      3.366140  
     307A      3.412465   308A      3.413367   309A      3.470621  
     310A      3.501821   311A      3.514920   312A      3.521226  
     313A      3.590655   314A      3.604301   315A      3.605509  
     316A      3.627769   317A      3.700349   318A      3.818791  
     319A      3.830553   320A      3.940833   321A      3.968962  
     322A      3.977236   323A      4.011269   324A      4.194623  
     325A      4.242117   326A      4.253485   327A      4.441854  
     328A      4.546695   329A      4.579141   330A      4.867504  
     331A      4.976010   332A      5.057717   333A      5.261577  
     334A      5.316406   335A      5.630064   336A      5.691189  
     337A      5.827013   338A      5.952500   339A      6.283694  
     340A      6.306756   341A      6.453634   342A      6.631067  
     343A     18.125584   344A     18.207846   345A     19.017442  
     346A     19.342867   347A     25.286925   348A     25.374645  

    Final Occupation by Irrep:
              A 
    DOCC [    21 ]

  @DF-RHF Final Energy:  -262.63994484705978

   => Energetics <=

    Nuclear Repulsion Energy =            212.5517310423005313
    One-Electron Energy =                -775.4594094798055721
    Two-Electron Energy =                 300.2677335904452889
    Total Energy =                       -262.6399448470597804

Computation Completed


Properties will be evaluated at   0.000000,   0.000000,   0.000000 [a0]

Properties computed using the SCF density matrix

  Nuclear Dipole Moment: [e a0]
     X:  -685.0615      Y:  -887.4694      Z:   906.7750

  Electronic Dipole Moment: [e a0]
     X:   685.0615      Y:   887.4694      Z:  -906.7750

  Dipole Moment: [e a0]
     X:     0.0000      Y:    -0.0000      Z:     0.0000     Total:     0.0000

  Dipole Moment: [D]
     X:     0.0000      Y:    -0.0000      Z:     0.0000     Total:     0.0000


*** tstop() called on atl1-1-01-013-7-l.pace.gatech.edu at Mon Nov 29 16:11:15 2021
Module time:
	user time   =      16.51 seconds =       0.28 minutes
	system time =       0.48 seconds =       0.01 minutes
	total time  =          9 seconds =       0.15 minutes
Total time:
	user time   =      59.57 seconds =       0.99 minutes
	system time =       2.03 seconds =       0.03 minutes
	total time  =         33 seconds =       0.55 minutes
  Constructing Basis Sets for SAPT...

   => Loading Basis Set <=

    Name: (AUG-CC-PVDZ AUX)
    Role: RIFIT
    Keyword: DF_BASIS_SAPT
    atoms 1-2, 11-12  entry N          line   158 file /storage/home/hhive1/csargent30/data/miniconda3/envs/psi4/share/psi4/basis/aug-cc-pvdz-ri.gbs 
    atoms 3-6, 13-16  entry H          line    30 file /storage/home/hhive1/csargent30/data/miniconda3/envs/psi4/share/psi4/basis/aug-cc-pvdz-ri.gbs 
    atoms 7-10, 17-20 entry C          line   112 file /storage/home/hhive1/csargent30/data/miniconda3/envs/psi4/share/psi4/basis/aug-cc-pvdz-ri.gbs 


  //>>>>>>>>>>>>>>>>>>>>>>>>>>>>>>>>>>>//
  //               SAPT0               //
  //<<<<<<<<<<<<<<<<<<<<<<<<<<<<<<<<<<<//


*** tstart() called on atl1-1-01-013-7-l.pace.gatech.edu
*** at Mon Nov 29 16:11:15 2021

        SAPT0  
    Ed Hohenstein
     6 June 2009

      Orbital Information
  --------------------------
    NSO        =       348
    NMO        =       348
    NRI        =      1048
    NOCC A     =        21
    NOCC B     =        21
    FOCC A     =         6
    FOCC B     =         6
    NVIR A     =       327
    NVIR B     =       327

    Elst10,r            =    -0.000003153794 [Eh]
    Exch10              =     0.000000000000 [Eh]
    Exch10 (S^2)        =     0.000000000000 [Eh]

    Iter     Energy [mEh]          dE [mEh]         Residual      Time [s]
       1      -0.00000454       0.000004535       0.025110273             0
       2      -0.00000406      -0.000000478       0.005883823             1
       3      -0.00000446       0.000000400       0.002208572             1
       4      -0.00000452       0.000000067       0.000609851             1
       5      -0.00000451      -0.000000011       0.000266255             2
       6      -0.00000451      -0.000000004       0.000113942             2
       7      -0.00000451       0.000000001       0.000062523             3
       8      -0.00000451       0.000000001       0.000020984             3
       9      -0.00000451      -0.000000000       0.000007133             3
      10      -0.00000451      -0.000000000       0.000001872             4
      11      -0.00000451       0.000000000       0.000000821             4

    CHF Iterations converged


    Iter     Energy [mEh]          dE [mEh]         Residual      Time [s]
       1      -0.00000454       0.000004535       0.025110273             0
       2      -0.00000406      -0.000000478       0.005883823             1
       3      -0.00000446       0.000000400       0.002208572             1
       4      -0.00000452       0.000000067       0.000609850             2
       5      -0.00000451      -0.000000011       0.000266255             2
       6      -0.00000451      -0.000000004       0.000113942             2
       7      -0.00000451       0.000000001       0.000062523             3
       8      -0.00000451       0.000000001       0.000020984             3
       9      -0.00000451      -0.000000000       0.000007133             3
      10      -0.00000451      -0.000000000       0.000001872             4
      11      -0.00000451       0.000000000       0.000000821             4

    CHF Iterations converged

    Ind20,r (A<-B)      =    -0.000000004511 [Eh]
    Ind20,r (B<-A)      =    -0.000000004511 [Eh]
    Ind20,r             =    -0.000000009023 [Eh]
    Exch-Ind20,r (A<-B) =     0.000000000000 [Eh]
    Exch-Ind20,r (B<-A) =     0.000000000000 [Eh]
    Exch-Ind20,r        =     0.000000000000 [Eh]
    Disp20              =    -0.000001025085 [Eh]
    Disp20 (SS)         =    -0.000000512543 [Eh]
    Disp20 (OS)         =    -0.000000512543 [Eh]
    Exch-Disp20         =     0.000000000000 [Eh]
    Exch-Disp20 (SS)    =     0.000000000000 [Eh]
    Exch-Disp20 (OS)    =     0.000000000000 [Eh]

    SAPT Results 
  --------------------------------------------------------------------------------------------------------
    Electrostatics                 -0.00315379 [mEh]      -0.00197904 [kcal/mol]      -0.00828028 [kJ/mol]
      Elst10,r                     -0.00315379 [mEh]      -0.00197904 [kcal/mol]      -0.00828028 [kJ/mol]

    Exchange                        0.00000000 [mEh]       0.00000000 [kcal/mol]       0.00000000 [kJ/mol]
      Exch10                        0.00000000 [mEh]       0.00000000 [kcal/mol]       0.00000000 [kJ/mol]
      Exch10(S^2)                   0.00000000 [mEh]       0.00000000 [kcal/mol]       0.00000000 [kJ/mol]

    Induction                      -0.00001431 [mEh]      -0.00000898 [kcal/mol]      -0.00003756 [kJ/mol]
      Ind20,r                      -0.00000902 [mEh]      -0.00000566 [kcal/mol]      -0.00002369 [kJ/mol]
      Exch-Ind20,r                  0.00000000 [mEh]       0.00000000 [kcal/mol]       0.00000000 [kJ/mol]
      delta HF,r (2)               -0.00000529 [mEh]      -0.00000332 [kcal/mol]      -0.00001388 [kJ/mol]

    Dispersion                     -0.00102509 [mEh]      -0.00064325 [kcal/mol]      -0.00269136 [kJ/mol]
      Disp20                       -0.00102509 [mEh]      -0.00064325 [kcal/mol]      -0.00269136 [kJ/mol]
      Exch-Disp20                   0.00000000 [mEh]       0.00000000 [kcal/mol]       0.00000000 [kJ/mol]
      Disp20 (SS)                  -0.00051254 [mEh]      -0.00032163 [kcal/mol]      -0.00134568 [kJ/mol]
      Disp20 (OS)                  -0.00051254 [mEh]      -0.00032163 [kcal/mol]      -0.00134568 [kJ/mol]
      Exch-Disp20 (SS)              0.00000000 [mEh]       0.00000000 [kcal/mol]       0.00000000 [kJ/mol]
      Exch-Disp20 (OS)              0.00000000 [mEh]       0.00000000 [kcal/mol]       0.00000000 [kJ/mol]

  Total HF                         -0.00316810 [mEh]      -0.00198801 [kcal/mol]      -0.00831785 [kJ/mol]
  Total SAPT0                      -0.00419319 [mEh]      -0.00263126 [kcal/mol]      -0.01100921 [kJ/mol]

  Special recipe for scaled SAPT0 (see Manual):
    Electrostatics sSAPT0          -0.00315379 [mEh]      -0.00197904 [kcal/mol]      -0.00828028 [kJ/mol]
    Exchange sSAPT0                 0.00000000 [mEh]       0.00000000 [kcal/mol]       0.00000000 [kJ/mol]
    Induction sSAPT0               -0.00001431 [mEh]      -0.00000898 [kcal/mol]      -0.00003756 [kJ/mol]
    Dispersion sSAPT0              -0.00102509 [mEh]      -0.00064325 [kcal/mol]      -0.00269136 [kJ/mol]
  Total sSAPT0                     -0.00419319 [mEh]      -0.00263126 [kcal/mol]      -0.01100921 [kJ/mol]
  --------------------------------------------------------------------------------------------------------

*** tstop() called on atl1-1-01-013-7-l.pace.gatech.edu at Mon Nov 29 16:11:41 2021
Module time:
	user time   =      37.24 seconds =       0.62 minutes
	system time =       8.95 seconds =       0.15 minutes
	total time  =         26 seconds =       0.43 minutes
Total time:
	user time   =      97.07 seconds =       1.62 minutes
	system time =      10.99 seconds =       0.18 minutes
	total time  =         59 seconds =       0.98 minutes


Warning! sapt0 does not have an associated derived wavefunction.The returned wavefunction is the dimer SCF wavefunction.


    Psi4 stopped on: Monday, 29 November 2021 04:11PM
    Psi4 wall time for execution: 0:00:58.78

*** Psi4 exiting successfully. Buy a developer a beer!
