
    -----------------------------------------------------------------------
          Psi4: An Open-Source Ab Initio Electronic Structure Package
                               Psi4 1.4.1 release

                         Git: Rev {HEAD} cd00f19 


    D. G. A. Smith, L. A. Burns, A. C. Simmonett, R. M. Parrish,
    M. C. Schieber, R. Galvelis, P. Kraus, H. Kruse, R. Di Remigio,
    A. Alenaizan, A. M. James, S. Lehtola, J. P. Misiewicz, M. Scheurer,
    R. A. Shaw, J. B. Schriber, Y. Xie, Z. L. Glick, D. A. Sirianni,
    J. S. O'Brien, J. M. Waldrop, A. Kumar, E. G. Hohenstein,
    B. P. Pritchard, B. R. Brooks, H. F. Schaefer III, A. Yu. Sokolov,
    K. Patkowski, A. E. DePrince III, U. Bozkaya, R. A. King,
    F. A. Evangelista, J. M. Turney, T. D. Crawford, C. D. Sherrill,
    J. Chem. Phys. 152(18) 184108 (2020). https://doi.org/10.1063/5.0006002

                            Additional Code Authors
    E. T. Seidl, C. L. Janssen, E. F. Valeev, M. L. Leininger,
    J. F. Gonthier, R. M. Richard, H. R. McAlexander, M. Saitow, X. Wang,
    P. Verma, and M. H. Lechner

             Previous Authors, Complete List of Code Contributors,
                       and Citations for Specific Modules
    https://github.com/psi4/psi4/blob/master/codemeta.json
    https://github.com/psi4/psi4/graphs/contributors
    http://psicode.org/psi4manual/master/introduction.html#citing-psifour

    -----------------------------------------------------------------------


    Psi4 started on: Monday, 29 November 2021 04:19PM

    Process ID: 432881
    Host:       atl1-1-01-013-7-l.pace.gatech.edu
    PSIDATADIR: /storage/home/hhive1/csargent30/data/miniconda3/envs/psi4/share/psi4
    Memory:     500.0 MiB
    Threads:    2
    
  ==> Input File <==

--------------------------------------------------------------------------
# PSI4 file produced by CrystaLattE

# Generated from:               pyrazine.xyz
# Psithon input for N-mer:      2mer-0+246
# Number of atoms per monomer:  [10, 10]
# Number of replicas:           4
# COM priority:                 2.270022709729e-05
# Minimum COM separations:      18.689 
# Separation priority:          3.263132664777e-05
# Minimum monomer separations:  16.560 
# Cutoff priority:              1.042748661136e-06
# Nuclear repulsion energy:     474.91019774433937

memory 7 GB

molecule Dimer_0_246 {
  N           -1.33084758       0.98032658       0.42627037 
  N            3.95377333       0.98032658       0.42627037 
  H            3.56713674       4.35218569      -0.94230973 
  H           -0.94421098       4.35218569      -0.94230973 
  H           -0.94421098      -2.39153253       1.79485047 
  H            3.56713674      -2.39153253       1.79485047 
  C            2.62292576       2.94097974      -0.42627037 
  C            0.00000000       2.94097974      -0.42627037 
  C            0.00000000      -0.98032658       1.27881112 
  C            2.62292576      -0.98032658       1.27881112 
--
  N          -18.95329959     -21.13022498     -20.73733942 
  N          -13.66867868     -21.13022498     -20.73733942 
  H          -14.05531527     -17.75836587     -22.10591952 
  H          -18.56666299     -17.75836587     -22.10591952 
  H          -18.56666299     -24.50208409     -19.36875932 
  H          -14.05531527     -24.50208409     -19.36875932 
  C          -14.99952625     -19.16957182     -21.58988017 
  C          -17.62245201     -19.16957182     -21.58988017 
  C          -17.62245201     -23.09087814     -19.88479867 
  C          -14.99952625     -23.09087814     -19.88479867 
units = au
no_com
no_reorient
}

set {
  e_convergence 10
  d_convergence 10
  scf_type df
  mp2_type df
  cc_type df
  freeze_core true
}

energy('sapt0/aug-cc-pvdz')

--------------------------------------------------------------------------

  Memory set to   6.519 GiB by Python driver.

Scratch directory: /tmp/

Scratch directory: /tmp/

  //>>>>>>>>>>>>>>>>>>>>>>>>>>>>>>>>>>>//
  //              Dimer HF             //
  //<<<<<<<<<<<<<<<<<<<<<<<<<<<<<<<<<<<//


*** tstart() called on atl1-1-01-013-7-l.pace.gatech.edu
*** at Mon Nov 29 16:19:01 2021

   => Loading Basis Set <=

    Name: AUG-CC-PVDZ
    Role: ORBITAL
    Keyword: BASIS
    atoms 1-2, 11-12  entry N          line   218 file /storage/home/hhive1/csargent30/data/miniconda3/envs/psi4/share/psi4/basis/aug-cc-pvdz.gbs 
    atoms 3-6, 13-16  entry H          line    40 file /storage/home/hhive1/csargent30/data/miniconda3/envs/psi4/share/psi4/basis/aug-cc-pvdz.gbs 
    atoms 7-10, 17-20 entry C          line   182 file /storage/home/hhive1/csargent30/data/miniconda3/envs/psi4/share/psi4/basis/aug-cc-pvdz.gbs 


         ---------------------------------------------------------
                                   SCF
               by Justin Turney, Rob Parrish, Andy Simmonett
                          and Daniel G. A. Smith
                              RHF Reference
                        2 Threads,   6675 MiB Core
         ---------------------------------------------------------

  ==> Geometry <==

    Molecular point group: c1
    Full point group: C1

    Geometry (in Bohr), charge = 0, multiplicity = 1:

       Center              X                  Y                   Z               Mass       
    ------------   -----------------  -----------------  -----------------  -----------------
         N           -1.330847580000     0.980326580000     0.426270370000    14.003074004430
         N            3.953773330000     0.980326580000     0.426270370000    14.003074004430
         H            3.567136740000     4.352185690000    -0.942309730000     1.007825032230
         H           -0.944210980000     4.352185690000    -0.942309730000     1.007825032230
         H           -0.944210980000    -2.391532530000     1.794850470000     1.007825032230
         H            3.567136740000    -2.391532530000     1.794850470000     1.007825032230
         C            2.622925760000     2.940979740000    -0.426270370000    12.000000000000
         C            0.000000000000     2.940979740000    -0.426270370000    12.000000000000
         C            0.000000000000    -0.980326580000     1.278811120000    12.000000000000
         C            2.622925760000    -0.980326580000     1.278811120000    12.000000000000
         N          -18.953299590000   -21.130224980000   -20.737339420000    14.003074004430
         N          -13.668678680000   -21.130224980000   -20.737339420000    14.003074004430
         H          -14.055315270000   -17.758365870000   -22.105919520000     1.007825032230
         H          -18.566662990000   -17.758365870000   -22.105919520000     1.007825032230
         H          -18.566662990000   -24.502084090000   -19.368759320000     1.007825032230
         H          -14.055315270000   -24.502084090000   -19.368759320000     1.007825032230
         C          -14.999526250000   -19.169571820000   -21.589880170000    12.000000000000
         C          -17.622452010000   -19.169571820000   -21.589880170000    12.000000000000
         C          -17.622452010000   -23.090878140000   -19.884798670000    12.000000000000
         C          -14.999526250000   -23.090878140000   -19.884798670000    12.000000000000

  Running in c1 symmetry.

  Rotational constants: A =      0.06086  B =      0.00065  C =      0.00065 [cm^-1]
  Rotational constants: A =   1824.45178  B =     19.56332  C =     19.53174 [MHz]
  Nuclear repulsion =  474.910197675033771

  Charge       = 0
  Multiplicity = 1
  Electrons    = 84
  Nalpha       = 42
  Nbeta        = 42

  ==> Algorithm <==

  SCF Algorithm Type is DF.
  DIIS enabled.
  MOM disabled.
  Fractional occupation disabled.
  Guess Type is SAD.
  Energy threshold   = 1.00e-10
  Density threshold  = 1.00e-10
  Integral threshold = 1.00e-12

  ==> Primary Basis <==

  Basis Set: AUG-CC-PVDZ
    Blend: AUG-CC-PVDZ
    Number of shells: 148
    Number of basis functions: 348
    Number of Cartesian functions: 372
    Spherical Harmonics?: true
    Max angular momentum: 2

   => Loading Basis Set <=

    Name: (AUG-CC-PVDZ AUX)
    Role: JKFIT
    Keyword: DF_BASIS_SCF
    atoms 1-2, 11-12  entry N          line   212 file /storage/home/hhive1/csargent30/data/miniconda3/envs/psi4/share/psi4/basis/aug-cc-pvdz-jkfit.gbs 
    atoms 3-6, 13-16  entry H          line    70 file /storage/home/hhive1/csargent30/data/miniconda3/envs/psi4/share/psi4/basis/aug-cc-pvdz-jkfit.gbs 
    atoms 7-10, 17-20 entry C          line   154 file /storage/home/hhive1/csargent30/data/miniconda3/envs/psi4/share/psi4/basis/aug-cc-pvdz-jkfit.gbs 

  ==> Integral Setup <==

  ==> DiskDFJK: Density-Fitted J/K Matrices <==

    J tasked:                  Yes
    K tasked:                  Yes
    wK tasked:                  No
    OpenMP threads:              2
    Integrals threads:           2
    Memory [MiB]:             5006
    Algorithm:                Core
    Integral Cache:           SAVE
    Schwarz Cutoff:          1E-12
    Fitting Condition:       1E-10

   => Auxiliary Basis Set <=

  Basis Set: (AUG-CC-PVDZ AUX)
    Blend: AUG-CC-PVDZ-JKFIT
    Number of shells: 432
    Number of basis functions: 1288
    Number of Cartesian functions: 1492
    Spherical Harmonics?: true
    Max angular momentum: 3

  Minimum eigenvalue in the overlap matrix is 9.4894918253E-06.
  Reciprocal condition number of the overlap matrix is 7.4014924949E-07.
    Using symmetric orthogonalization.

  ==> Pre-Iterations <==

  SCF Guess: Superposition of Atomic Densities via on-the-fly atomic UHF (no occupation information).

   -------------------------
    Irrep   Nso     Nmo    
   -------------------------
     A        348     348 
   -------------------------
    Total     348     348
   -------------------------

  ==> Iterations <==

                           Total Energy        Delta E     RMS |[F,P]|

   @DF-RHF iter SAD:  -524.65046251046283   -5.24650e+02   0.00000e+00 
   @DF-RHF iter   1:  -525.07881673193504   -4.28354e-01   1.58371e-03 DIIS
   @DF-RHF iter   2:  -525.25757758774091   -1.78761e-01   5.80767e-04 DIIS
   @DF-RHF iter   3:  -525.27724668130418   -1.96691e-02   1.81370e-04 DIIS
   @DF-RHF iter   4:  -525.27969618399754   -2.44950e-03   5.34006e-05 DIIS
   @DF-RHF iter   5:  -525.27987538468108   -1.79201e-04   1.06851e-05 DIIS
   @DF-RHF iter   6:  -525.27988848498012   -1.31003e-05   3.46851e-06 DIIS
   @DF-RHF iter   7:  -525.27989038967530   -1.90470e-06   9.05271e-07 DIIS
   @DF-RHF iter   8:  -525.27989053744636   -1.47771e-07   1.40301e-07 DIIS
   @DF-RHF iter   9:  -525.27989054141858   -3.97222e-09   2.69931e-08 DIIS
   @DF-RHF iter  10:  -525.27989054155978   -1.41199e-10   6.85833e-09 DIIS
   @DF-RHF iter  11:  -525.27989054156490   -5.11591e-12   3.25198e-09 DIIS
   @DF-RHF iter  12:  -525.27989054156637   -1.47793e-12   4.77439e-10 DIIS
   @DF-RHF iter  13:  -525.27989054156546    9.09495e-13   2.02578e-10 DIIS
   @DF-RHF iter  14:  -525.27989054156592   -4.54747e-13   6.36149e-11 DIIS
  Energy and wave function converged.


  ==> Post-Iterations <==

    Orbital Energies [Eh]
    ---------------------

    Doubly Occupied:                                                      

       1A    -15.598033     2A    -15.598033     3A    -15.598014  
       4A    -15.598014     5A    -11.274200     6A    -11.274200  
       7A    -11.274154     8A    -11.274154     9A    -11.272937  
      10A    -11.272937    11A    -11.272929    12A    -11.272929  
      13A     -1.313307    14A     -1.313307    15A     -1.224136  
      16A     -1.224136    17A     -1.076764    18A     -1.076764  
      19A     -0.922623    20A     -0.922623    21A     -0.919243  
      22A     -0.919243    23A     -0.760598    24A     -0.760598  
      25A     -0.738362    26A     -0.738362    27A     -0.706175  
      28A     -0.706175    29A     -0.647648    30A     -0.647648  
      31A     -0.580671    32A     -0.580671    33A     -0.574330  
      34A     -0.574330    35A     -0.497074    36A     -0.497074  
      37A     -0.434249    38A     -0.434249    39A     -0.415816  
      40A     -0.415816    41A     -0.359884    42A     -0.359884  

    Virtual:                                                              

      43A      0.034538    44A      0.034539    45A      0.040781  
      46A      0.040782    47A      0.048418    48A      0.048426  
      49A      0.058628    50A      0.058634    51A      0.067153  
      52A      0.067153    53A      0.099459    54A      0.099459  
      55A      0.100987    56A      0.100987    57A      0.114243  
      58A      0.114243    59A      0.114991    60A      0.114991  
      61A      0.123810    62A      0.123819    63A      0.125363  
      64A      0.125363    65A      0.128699    66A      0.128699  
      67A      0.132930    68A      0.132930    69A      0.158239  
      70A      0.158243    71A      0.161124    72A      0.161128  
      73A      0.161362    74A      0.161368    75A      0.163944  
      76A      0.163962    77A      0.175214    78A      0.175220  
      79A      0.186959    80A      0.186959    81A      0.203950  
      82A      0.203950    83A      0.212575    84A      0.212577  
      85A      0.250557    86A      0.250557    87A      0.267794  
      88A      0.267794    89A      0.278093    90A      0.278098  
      91A      0.287851    92A      0.287852    93A      0.293245  
      94A      0.293245    95A      0.295777    96A      0.295793  
      97A      0.314870    98A      0.314870    99A      0.320496  
     100A      0.320496   101A      0.355464   102A      0.355468  
     103A      0.357948   104A      0.357948   105A      0.364700  
     106A      0.364700   107A      0.382617   108A      0.382626  
     109A      0.398931   110A      0.398933   111A      0.409933  
     112A      0.409935   113A      0.425489   114A      0.425494  
     115A      0.433966   116A      0.433966   117A      0.437250  
     118A      0.437253   119A      0.452129   120A      0.452131  
     121A      0.471522   122A      0.471524   123A      0.492179  
     124A      0.492179   125A      0.504901   126A      0.504901  
     127A      0.514954   128A      0.514954   129A      0.524586  
     130A      0.524586   131A      0.528708   132A      0.528709  
     133A      0.554617   134A      0.554617   135A      0.570575  
     136A      0.570575   137A      0.587574   138A      0.587574  
     139A      0.591545   140A      0.591545   141A      0.593838  
     142A      0.593838   143A      0.608968   144A      0.608968  
     145A      0.643556   146A      0.643556   147A      0.644358  
     148A      0.644361   149A      0.685175   150A      0.685175  
     151A      0.687798   152A      0.687798   153A      0.689971  
     154A      0.689971   155A      0.690379   156A      0.690383  
     157A      0.694867   158A      0.694867   159A      0.703864  
     160A      0.703872   161A      0.746597   162A      0.746598  
     163A      0.754857   164A      0.754857   165A      0.767004  
     166A      0.767004   167A      0.781444   168A      0.781445  
     169A      0.799854   170A      0.799855   171A      0.802749  
     172A      0.802750   173A      0.819055   174A      0.819055  
     175A      0.831111   176A      0.831111   177A      0.847551  
     178A      0.847552   179A      0.880584   180A      0.880584  
     181A      0.886449   182A      0.886449   183A      0.894722  
     184A      0.894722   185A      0.929311   186A      0.929311  
     187A      0.939505   188A      0.939507   189A      0.949345  
     190A      0.949346   191A      0.996691   192A      0.996691  
     193A      0.998946   194A      0.998946   195A      1.013054  
     196A      1.013054   197A      1.033409   198A      1.033411  
     199A      1.051234   200A      1.051234   201A      1.089419  
     202A      1.089420   203A      1.100484   204A      1.100484  
     205A      1.122238   206A      1.122239   207A      1.124084  
     208A      1.124085   209A      1.134402   210A      1.134402  
     211A      1.158778   212A      1.158781   213A      1.173604  
     214A      1.173604   215A      1.235455   216A      1.235456  
     217A      1.238843   218A      1.238844   219A      1.309712  
     220A      1.309713   221A      1.331187   222A      1.331188  
     223A      1.414321   224A      1.414321   225A      1.451565  
     226A      1.451565   227A      1.486176   228A      1.486176  
     229A      1.488114   230A      1.488114   231A      1.499249  
     232A      1.499250   233A      1.502885   234A      1.502885  
     235A      1.518291   236A      1.518291   237A      1.572725  
     238A      1.572725   239A      1.574231   240A      1.574232  
     241A      1.587875   242A      1.587876   243A      1.636021  
     244A      1.636021   245A      1.640544   246A      1.640544  
     247A      1.648257   248A      1.648260   249A      1.676592  
     250A      1.676592   251A      1.717030   252A      1.717030  
     253A      1.746637   254A      1.746637   255A      1.755144  
     256A      1.755144   257A      1.783801   258A      1.783802  
     259A      1.815767   260A      1.815767   261A      1.893363  
     262A      1.893363   263A      1.916176   264A      1.916176  
     265A      1.964868   266A      1.964868   267A      1.987714  
     268A      1.987714   269A      2.031241   270A      2.031242  
     271A      2.091588   272A      2.091588   273A      2.101066  
     274A      2.101068   275A      2.142992   276A      2.142992  
     277A      2.163395   278A      2.163395   279A      2.190528  
     280A      2.190528   281A      2.193340   282A      2.193342  
     283A      2.200419   284A      2.200419   285A      2.202450  
     286A      2.202450   287A      2.227665   288A      2.227665  
     289A      2.312800   290A      2.312800   291A      2.355268  
     292A      2.355268   293A      2.430996   294A      2.430996  
     295A      2.439016   296A      2.439016   297A      2.519418  
     298A      2.519418   299A      2.522434   300A      2.522434  
     301A      2.584805   302A      2.584805   303A      2.606305  
     304A      2.606305   305A      2.665263   306A      2.665263  
     307A      2.675448   308A      2.675448   309A      2.686434  
     310A      2.686434   311A      2.714022   312A      2.714026  
     313A      2.718630   314A      2.718631   315A      2.844053  
     316A      2.844053   317A      2.865800   318A      2.865800  
     319A      2.939235   320A      2.939235   321A      3.001894  
     322A      3.001895   323A      3.017911   324A      3.017911  
     325A      3.032225   326A      3.032226   327A      3.094176  
     328A      3.094176   329A      3.220352   330A      3.220358  
     331A      3.256019   332A      3.256019   333A      3.284919  
     334A      3.284919   335A      3.366179   336A      3.366179  
     337A      3.413406   338A      3.413406   339A      3.514959  
     340A      3.514959   341A      3.590694   342A      3.590694  
     343A      3.627808   344A      3.627808   345A      3.977275  
     346A      3.977276   347A      4.253524   348A      4.253525  

    Final Occupation by Irrep:
              A 
    DOCC [    42 ]

  @DF-RHF Final Energy:  -525.27989054156592

   => Energetics <=

    Nuclear Repulsion Energy =            474.9101976750337712
    One-Electron Energy =               -1650.5355889416071022
    Two-Electron Energy =                 650.3455007250074686
    Total Energy =                       -525.2798905415659192

Computation Completed


Properties will be evaluated at   0.000000,   0.000000,   0.000000 [a0]

Properties computed using the SCF density matrix

  Nuclear Dipole Moment: [e a0]
     X:  -629.9801      Y:  -846.2957      Z:  -853.0649

  Electronic Dipole Moment: [e a0]
     X:   629.9801      Y:   846.2957      Z:   853.0649

  Dipole Moment: [e a0]
     X:     0.0000      Y:     0.0000      Z:     0.0000     Total:     0.0000

  Dipole Moment: [D]
     X:     0.0000      Y:     0.0000      Z:     0.0000     Total:     0.0000


*** tstop() called on atl1-1-01-013-7-l.pace.gatech.edu at Mon Nov 29 16:19:14 2021
Module time:
	user time   =      22.85 seconds =       0.38 minutes
	system time =       0.95 seconds =       0.02 minutes
	total time  =         13 seconds =       0.22 minutes
Total time:
	user time   =      22.85 seconds =       0.38 minutes
	system time =       0.95 seconds =       0.02 minutes
	total time  =         13 seconds =       0.22 minutes

  //>>>>>>>>>>>>>>>>>>>>>>>>>>>>>>>>>>>//
  //            Monomer A HF           //
  //<<<<<<<<<<<<<<<<<<<<<<<<<<<<<<<<<<<//


*** tstart() called on atl1-1-01-013-7-l.pace.gatech.edu
*** at Mon Nov 29 16:19:14 2021

   => Loading Basis Set <=

    Name: AUG-CC-PVDZ
    Role: ORBITAL
    Keyword: BASIS
    atoms 1-2, 11-12  entry N          line   218 file /storage/home/hhive1/csargent30/data/miniconda3/envs/psi4/share/psi4/basis/aug-cc-pvdz.gbs 
    atoms 3-6, 13-16  entry H          line    40 file /storage/home/hhive1/csargent30/data/miniconda3/envs/psi4/share/psi4/basis/aug-cc-pvdz.gbs 
    atoms 7-10, 17-20 entry C          line   182 file /storage/home/hhive1/csargent30/data/miniconda3/envs/psi4/share/psi4/basis/aug-cc-pvdz.gbs 


         ---------------------------------------------------------
                                   SCF
               by Justin Turney, Rob Parrish, Andy Simmonett
                          and Daniel G. A. Smith
                              RHF Reference
                        2 Threads,   6675 MiB Core
         ---------------------------------------------------------

  ==> Geometry <==

    Molecular point group: c1
    Full point group: C1

    Geometry (in Bohr), charge = 0, multiplicity = 1:

       Center              X                  Y                   Z               Mass       
    ------------   -----------------  -----------------  -----------------  -----------------
         N           -1.330847580000     0.980326580000     0.426270370000    14.003074004430
         N            3.953773330000     0.980326580000     0.426270370000    14.003074004430
         H            3.567136740000     4.352185690000    -0.942309730000     1.007825032230
         H           -0.944210980000     4.352185690000    -0.942309730000     1.007825032230
         H           -0.944210980000    -2.391532530000     1.794850470000     1.007825032230
         H            3.567136740000    -2.391532530000     1.794850470000     1.007825032230
         C            2.622925760000     2.940979740000    -0.426270370000    12.000000000000
         C            0.000000000000     2.940979740000    -0.426270370000    12.000000000000
         C            0.000000000000    -0.980326580000     1.278811120000    12.000000000000
         C            2.622925760000    -0.980326580000     1.278811120000    12.000000000000
      Gh(N)         -18.953299590000   -21.130224980000   -20.737339420000    14.003074004430
      Gh(N)         -13.668678680000   -21.130224980000   -20.737339420000    14.003074004430
      Gh(H)         -14.055315270000   -17.758365870000   -22.105919520000     1.007825032230
      Gh(H)         -18.566662990000   -17.758365870000   -22.105919520000     1.007825032230
      Gh(H)         -18.566662990000   -24.502084090000   -19.368759320000     1.007825032230
      Gh(H)         -14.055315270000   -24.502084090000   -19.368759320000     1.007825032230
      Gh(C)         -14.999526250000   -19.169571820000   -21.589880170000    12.000000000000
      Gh(C)         -17.622452010000   -19.169571820000   -21.589880170000    12.000000000000
      Gh(C)         -17.622452010000   -23.090878140000   -19.884798670000    12.000000000000
      Gh(C)         -14.999526250000   -23.090878140000   -19.884798670000    12.000000000000

  Running in c1 symmetry.

  Rotational constants: A =      0.06086  B =      0.00065  C =      0.00065 [cm^-1]
  Rotational constants: A =   1824.45178  B =     19.56332  C =     19.53174 [MHz]
  Nuclear repulsion =  212.551731110485349

  Charge       = 0
  Multiplicity = 1
  Electrons    = 42
  Nalpha       = 21
  Nbeta        = 21

  ==> Algorithm <==

  SCF Algorithm Type is DF.
  DIIS enabled.
  MOM disabled.
  Fractional occupation disabled.
  Guess Type is SAD.
  Energy threshold   = 1.00e-10
  Density threshold  = 1.00e-10
  Integral threshold = 1.00e-12

  ==> Primary Basis <==

  Basis Set: AUG-CC-PVDZ
    Blend: AUG-CC-PVDZ
    Number of shells: 148
    Number of basis functions: 348
    Number of Cartesian functions: 372
    Spherical Harmonics?: true
    Max angular momentum: 2

   => Loading Basis Set <=

    Name: (AUG-CC-PVDZ AUX)
    Role: JKFIT
    Keyword: DF_BASIS_SCF
    atoms 1-2, 11-12  entry N          line   212 file /storage/home/hhive1/csargent30/data/miniconda3/envs/psi4/share/psi4/basis/aug-cc-pvdz-jkfit.gbs 
    atoms 3-6, 13-16  entry H          line    70 file /storage/home/hhive1/csargent30/data/miniconda3/envs/psi4/share/psi4/basis/aug-cc-pvdz-jkfit.gbs 
    atoms 7-10, 17-20 entry C          line   154 file /storage/home/hhive1/csargent30/data/miniconda3/envs/psi4/share/psi4/basis/aug-cc-pvdz-jkfit.gbs 

  ==> Integral Setup <==

  ==> DiskDFJK: Density-Fitted J/K Matrices <==

    J tasked:                  Yes
    K tasked:                  Yes
    wK tasked:                  No
    OpenMP threads:              2
    Integrals threads:           2
    Memory [MiB]:             5006
    Algorithm:                Core
    Integral Cache:           LOAD
    Schwarz Cutoff:          1E-12
    Fitting Condition:       1E-10

   => Auxiliary Basis Set <=

  Basis Set: (AUG-CC-PVDZ AUX)
    Blend: AUG-CC-PVDZ-JKFIT
    Number of shells: 432
    Number of basis functions: 1288
    Number of Cartesian functions: 1492
    Spherical Harmonics?: true
    Max angular momentum: 3

  Minimum eigenvalue in the overlap matrix is 9.4894918253E-06.
  Reciprocal condition number of the overlap matrix is 7.4014924949E-07.
    Using symmetric orthogonalization.

  ==> Pre-Iterations <==

  SCF Guess: Superposition of Atomic Densities via on-the-fly atomic UHF (no occupation information).

   -------------------------
    Irrep   Nso     Nmo    
   -------------------------
     A        348     348 
   -------------------------
    Total     348     348
   -------------------------

  ==> Iterations <==

                           Total Energy        Delta E     RMS |[F,P]|

   @DF-RHF iter SAD:  -262.32523125899110   -2.62325e+02   0.00000e+00 
   @DF-RHF iter   1:  -262.53940798238983   -2.14177e-01   1.11985e-03 DIIS
   @DF-RHF iter   2:  -262.62878837505525   -8.93804e-02   4.10664e-04 DIIS
   @DF-RHF iter   3:  -262.63862291963778   -9.83454e-03   1.28248e-04 DIIS
   @DF-RHF iter   4:  -262.63984767290981   -1.22475e-03   3.77599e-05 DIIS
   @DF-RHF iter   5:  -262.63993727337214   -8.96005e-05   7.55558e-06 DIIS
   @DF-RHF iter   6:  -262.63994382363120   -6.55026e-06   2.45264e-06 DIIS
   @DF-RHF iter   7:  -262.63994477600392   -9.52373e-07   6.40130e-07 DIIS
   @DF-RHF iter   8:  -262.63994484989263   -7.38887e-08   9.91693e-08 DIIS
   @DF-RHF iter   9:  -262.63994485187828   -1.98565e-09   1.88228e-08 DIIS
   @DF-RHF iter  10:  -262.63994485194979   -7.15090e-11   3.19151e-09 DIIS
   @DF-RHF iter  11:  -262.63994485195195   -2.16005e-12   5.22317e-10 DIIS
   @DF-RHF iter  12:  -262.63994485195184    1.13687e-13   9.54324e-11 DIIS
  Energy and wave function converged.


  ==> Post-Iterations <==

    Orbital Energies [Eh]
    ---------------------

    Doubly Occupied:                                                      

       1A    -15.598072     2A    -15.598053     3A    -11.274239  
       4A    -11.274194     5A    -11.272975     6A    -11.272969  
       7A     -1.313347     8A     -1.224176     9A     -1.076803  
      10A     -0.922662    11A     -0.919282    12A     -0.760637  
      13A     -0.738402    14A     -0.706214    15A     -0.647687  
      16A     -0.580711    17A     -0.574369    18A     -0.497113  
      19A     -0.434288    20A     -0.415855    21A     -0.359924  

    Virtual:                                                              

      22A      0.022400    23A      0.034497    24A      0.039476  
      25A      0.040738    26A      0.041143    27A      0.048383  
      28A      0.058591    29A      0.058815    30A      0.067113  
      31A      0.079649    32A      0.085014    33A      0.099419  
      34A      0.100948    35A      0.103958    36A      0.108477  
      37A      0.108816    38A      0.114201    39A      0.114951  
      40A      0.122466    41A      0.123776    42A      0.125322  
      43A      0.125554    44A      0.128661    45A      0.130911  
      46A      0.132889    47A      0.134113    48A      0.152068  
      49A      0.152990    50A      0.158199    51A      0.159309  
      52A      0.161084    53A      0.161326    54A      0.163914  
      55A      0.175179    56A      0.176707    57A      0.186918  
      58A      0.197763    59A      0.203872    60A      0.203908  
      61A      0.206625    62A      0.212538    63A      0.222348  
      64A      0.233575    65A      0.239400    66A      0.250517  
      67A      0.255184    68A      0.267756    69A      0.270740  
      70A      0.278056    71A      0.287812    72A      0.293207  
      73A      0.295749    74A      0.302288    75A      0.314832  
      76A      0.320457    77A      0.320602    78A      0.328121  
      79A      0.331266    80A      0.344080    81A      0.355428  
      82A      0.357908    83A      0.364661    84A      0.380461  
      85A      0.382583    86A      0.385600    87A      0.398891  
      88A      0.401235    89A      0.409895    90A      0.419234  
      91A      0.424915    92A      0.425453    93A      0.433925  
      94A      0.437212    95A      0.441896    96A      0.452092  
      97A      0.460620    98A      0.461067    99A      0.471483  
     100A      0.476049   101A      0.478782   102A      0.492140  
     103A      0.504862   104A      0.507785   105A      0.514914  
     106A      0.523728   107A      0.524547   108A      0.528668  
     109A      0.535696   110A      0.554577   111A      0.557807  
     112A      0.561478   113A      0.564457   114A      0.570535  
     115A      0.581867   116A      0.587535   117A      0.591506  
     118A      0.593799   119A      0.595971   120A      0.608929  
     121A      0.615104   122A      0.620124   123A      0.636328  
     124A      0.643517   125A      0.644321   126A      0.649318  
     127A      0.651453   128A      0.679376   129A      0.685136  
     130A      0.685277   131A      0.687758   132A      0.689932  
     133A      0.690342   134A      0.694828   135A      0.703829  
     136A      0.719853   137A      0.728356   138A      0.746558  
     139A      0.746752   140A      0.754817   141A      0.766965  
     142A      0.775645   143A      0.781406   144A      0.793594  
     145A      0.799815   146A      0.802710   147A      0.811056  
     148A      0.811941   149A      0.819016   150A      0.824714  
     151A      0.831071   152A      0.847513   153A      0.848025  
     154A      0.849147   155A      0.868569   156A      0.880544  
     157A      0.886410   158A      0.888111   159A      0.894682  
     160A      0.906067   161A      0.929075   162A      0.929272  
     163A      0.939466   164A      0.947654   165A      0.949307  
     166A      0.970744   167A      0.976897   168A      0.986599  
     169A      0.996652   170A      0.998908   171A      1.013015  
     172A      1.032382   173A      1.033370   174A      1.046893  
     175A      1.051194   176A      1.076227   177A      1.089381  
     178A      1.090239   179A      1.100445   180A      1.122199  
     181A      1.124044   182A      1.130625   183A      1.134362  
     184A      1.140228   185A      1.158740   186A      1.168552  
     187A      1.170639   188A      1.173565   189A      1.192170  
     190A      1.193203   191A      1.200436   192A      1.222279  
     193A      1.235416   194A      1.238804   195A      1.250990  
     196A      1.307520   197A      1.309674   198A      1.318224  
     199A      1.326376   200A      1.329573   201A      1.331148  
     202A      1.346770   203A      1.389177   204A      1.414282  
     205A      1.448351   206A      1.451526   207A      1.455422  
     208A      1.479096   209A      1.486137   210A      1.487167  
     211A      1.488075   212A      1.499211   213A      1.502846  
     214A      1.518252   215A      1.572686   216A      1.574192  
     217A      1.587836   218A      1.635982   219A      1.640505  
     220A      1.648219   221A      1.659204   222A      1.676552  
     223A      1.698029   224A      1.716991   225A      1.746597  
     226A      1.755104   227A      1.783762   228A      1.815727  
     229A      1.893323   230A      1.916137   231A      1.964829  
     232A      1.987674   233A      2.031202   234A      2.070192  
     235A      2.091548   236A      2.101028   237A      2.102730  
     238A      2.119409   239A      2.142953   240A      2.156641  
     241A      2.159155   242A      2.163355   243A      2.190488  
     244A      2.193301   245A      2.194825   246A      2.200380  
     247A      2.202410   248A      2.227626   249A      2.234740  
     250A      2.241168   251A      2.249626   252A      2.309980  
     253A      2.312761   254A      2.319512   255A      2.355229  
     256A      2.384770   257A      2.419174   258A      2.430957  
     259A      2.435378   260A      2.438131   261A      2.438977  
     262A      2.472642   263A      2.486689   264A      2.498286  
     265A      2.519379   266A      2.522395   267A      2.525033  
     268A      2.545961   269A      2.568293   270A      2.584766  
     271A      2.592338   272A      2.606266   273A      2.625938  
     274A      2.665224   275A      2.675409   276A      2.686395  
     277A      2.713985   278A      2.716863   279A      2.718591  
     280A      2.726617   281A      2.767900   282A      2.844014  
     283A      2.865761   284A      2.904002   285A      2.939196  
     286A      2.947192   287A      2.955716   288A      2.973306  
     289A      3.001855   290A      3.017872   291A      3.032186  
     292A      3.058296   293A      3.065195   294A      3.094137  
     295A      3.113835   296A      3.220316   297A      3.245695  
     298A      3.255980   299A      3.284880   300A      3.289647  
     301A      3.321928   302A      3.337707   303A      3.340453  
     304A      3.348625   305A      3.351348   306A      3.366140  
     307A      3.412596   308A      3.413367   309A      3.470751  
     310A      3.501952   311A      3.514920   312A      3.521359  
     313A      3.590655   314A      3.604434   315A      3.605641  
     316A      3.627769   317A      3.700481   318A      3.818922  
     319A      3.830685   320A      3.940966   321A      3.969093  
     322A      3.977236   323A      4.011400   324A      4.194755  
     325A      4.242248   326A      4.253485   327A      4.441986  
     328A      4.546826   329A      4.579274   330A      4.867637  
     331A      4.976141   332A      5.057849   333A      5.261709  
     334A      5.316537   335A      5.630195   336A      5.691321  
     337A      5.827145   338A      5.952630   339A      6.283826  
     340A      6.306887   341A      6.453764   342A      6.631198  
     343A     18.125715   344A     18.207977   345A     19.017573  
     346A     19.342998   347A     25.287058   348A     25.374778  

    Final Occupation by Irrep:
              A 
    DOCC [    21 ]

  @DF-RHF Final Energy:  -262.63994485195184

   => Energetics <=

    Nuclear Repulsion Energy =            212.5517311104853491
    One-Electron Energy =                -775.4594096334950564
    Two-Electron Energy =                 300.2677336710578970
    Total Energy =                       -262.6399448519518387

Computation Completed


Properties will be evaluated at   0.000000,   0.000000,   0.000000 [a0]

Properties computed using the SCF density matrix

  Nuclear Dipole Moment: [e a0]
     X:    55.0814      Y:    41.1737      Z:    17.9034

  Electronic Dipole Moment: [e a0]
     X:   -55.0814      Y:   -41.1737      Z:   -17.9034

  Dipole Moment: [e a0]
     X:    -0.0000      Y:     0.0000      Z:    -0.0000     Total:     0.0000

  Dipole Moment: [D]
     X:    -0.0000      Y:     0.0000      Z:    -0.0000     Total:     0.0000


*** tstop() called on atl1-1-01-013-7-l.pace.gatech.edu at Mon Nov 29 16:19:22 2021
Module time:
	user time   =      13.61 seconds =       0.23 minutes
	system time =       0.46 seconds =       0.01 minutes
	total time  =          8 seconds =       0.13 minutes
Total time:
	user time   =      36.47 seconds =       0.61 minutes
	system time =       1.41 seconds =       0.02 minutes
	total time  =         21 seconds =       0.35 minutes

  //>>>>>>>>>>>>>>>>>>>>>>>>>>>>>>>>>>>//
  //            Monomer B HF           //
  //<<<<<<<<<<<<<<<<<<<<<<<<<<<<<<<<<<<//


*** tstart() called on atl1-1-01-013-7-l.pace.gatech.edu
*** at Mon Nov 29 16:19:22 2021

   => Loading Basis Set <=

    Name: AUG-CC-PVDZ
    Role: ORBITAL
    Keyword: BASIS
    atoms 1-2, 11-12  entry N          line   218 file /storage/home/hhive1/csargent30/data/miniconda3/envs/psi4/share/psi4/basis/aug-cc-pvdz.gbs 
    atoms 3-6, 13-16  entry H          line    40 file /storage/home/hhive1/csargent30/data/miniconda3/envs/psi4/share/psi4/basis/aug-cc-pvdz.gbs 
    atoms 7-10, 17-20 entry C          line   182 file /storage/home/hhive1/csargent30/data/miniconda3/envs/psi4/share/psi4/basis/aug-cc-pvdz.gbs 


         ---------------------------------------------------------
                                   SCF
               by Justin Turney, Rob Parrish, Andy Simmonett
                          and Daniel G. A. Smith
                              RHF Reference
                        2 Threads,   6675 MiB Core
         ---------------------------------------------------------

  ==> Geometry <==

    Molecular point group: c1
    Full point group: C1

    Geometry (in Bohr), charge = 0, multiplicity = 1:

       Center              X                  Y                   Z               Mass       
    ------------   -----------------  -----------------  -----------------  -----------------
      Gh(N)          -1.330847580000     0.980326580000     0.426270370000    14.003074004430
      Gh(N)           3.953773330000     0.980326580000     0.426270370000    14.003074004430
      Gh(H)           3.567136740000     4.352185690000    -0.942309730000     1.007825032230
      Gh(H)          -0.944210980000     4.352185690000    -0.942309730000     1.007825032230
      Gh(H)          -0.944210980000    -2.391532530000     1.794850470000     1.007825032230
      Gh(H)           3.567136740000    -2.391532530000     1.794850470000     1.007825032230
      Gh(C)           2.622925760000     2.940979740000    -0.426270370000    12.000000000000
      Gh(C)           0.000000000000     2.940979740000    -0.426270370000    12.000000000000
      Gh(C)           0.000000000000    -0.980326580000     1.278811120000    12.000000000000
      Gh(C)           2.622925760000    -0.980326580000     1.278811120000    12.000000000000
         N          -18.953299590000   -21.130224980000   -20.737339420000    14.003074004430
         N          -13.668678680000   -21.130224980000   -20.737339420000    14.003074004430
         H          -14.055315270000   -17.758365870000   -22.105919520000     1.007825032230
         H          -18.566662990000   -17.758365870000   -22.105919520000     1.007825032230
         H          -18.566662990000   -24.502084090000   -19.368759320000     1.007825032230
         H          -14.055315270000   -24.502084090000   -19.368759320000     1.007825032230
         C          -14.999526250000   -19.169571820000   -21.589880170000    12.000000000000
         C          -17.622452010000   -19.169571820000   -21.589880170000    12.000000000000
         C          -17.622452010000   -23.090878140000   -19.884798670000    12.000000000000
         C          -14.999526250000   -23.090878140000   -19.884798670000    12.000000000000

  Running in c1 symmetry.

  Rotational constants: A =      0.06086  B =      0.00065  C =      0.00065 [cm^-1]
  Rotational constants: A =   1824.45178  B =     19.56332  C =     19.53174 [MHz]
  Nuclear repulsion =  212.551731042300531

  Charge       = 0
  Multiplicity = 1
  Electrons    = 42
  Nalpha       = 21
  Nbeta        = 21

  ==> Algorithm <==

  SCF Algorithm Type is DF.
  DIIS enabled.
  MOM disabled.
  Fractional occupation disabled.
  Guess Type is SAD.
  Energy threshold   = 1.00e-10
  Density threshold  = 1.00e-10
  Integral threshold = 1.00e-12

  ==> Primary Basis <==

  Basis Set: AUG-CC-PVDZ
    Blend: AUG-CC-PVDZ
    Number of shells: 148
    Number of basis functions: 348
    Number of Cartesian functions: 372
    Spherical Harmonics?: true
    Max angular momentum: 2

   => Loading Basis Set <=

    Name: (AUG-CC-PVDZ AUX)
    Role: JKFIT
    Keyword: DF_BASIS_SCF
    atoms 1-2, 11-12  entry N          line   212 file /storage/home/hhive1/csargent30/data/miniconda3/envs/psi4/share/psi4/basis/aug-cc-pvdz-jkfit.gbs 
    atoms 3-6, 13-16  entry H          line    70 file /storage/home/hhive1/csargent30/data/miniconda3/envs/psi4/share/psi4/basis/aug-cc-pvdz-jkfit.gbs 
    atoms 7-10, 17-20 entry C          line   154 file /storage/home/hhive1/csargent30/data/miniconda3/envs/psi4/share/psi4/basis/aug-cc-pvdz-jkfit.gbs 

  ==> Integral Setup <==

  ==> DiskDFJK: Density-Fitted J/K Matrices <==

    J tasked:                  Yes
    K tasked:                  Yes
    wK tasked:                  No
    OpenMP threads:              2
    Integrals threads:           2
    Memory [MiB]:             5006
    Algorithm:                Core
    Integral Cache:           LOAD
    Schwarz Cutoff:          1E-12
    Fitting Condition:       1E-10

   => Auxiliary Basis Set <=

  Basis Set: (AUG-CC-PVDZ AUX)
    Blend: AUG-CC-PVDZ-JKFIT
    Number of shells: 432
    Number of basis functions: 1288
    Number of Cartesian functions: 1492
    Spherical Harmonics?: true
    Max angular momentum: 3

  Minimum eigenvalue in the overlap matrix is 9.4894918253E-06.
  Reciprocal condition number of the overlap matrix is 7.4014924949E-07.
    Using symmetric orthogonalization.

  ==> Pre-Iterations <==

  SCF Guess: Superposition of Atomic Densities via on-the-fly atomic UHF (no occupation information).

   -------------------------
    Irrep   Nso     Nmo    
   -------------------------
     A        348     348 
   -------------------------
    Total     348     348
   -------------------------

  ==> Iterations <==

                           Total Energy        Delta E     RMS |[F,P]|

   @DF-RHF iter SAD:  -262.32523125105837   -2.62325e+02   0.00000e+00 
   @DF-RHF iter   1:  -262.53940798063167   -2.14177e-01   1.11985e-03 DIIS
   @DF-RHF iter   2:  -262.62878837317226   -8.93804e-02   4.10664e-04 DIIS
   @DF-RHF iter   3:  -262.63862291770664   -9.83454e-03   1.28248e-04 DIIS
   @DF-RHF iter   4:  -262.63984767097986   -1.22475e-03   3.77599e-05 DIIS
   @DF-RHF iter   5:  -262.63993727144128   -8.96005e-05   7.55558e-06 DIIS
   @DF-RHF iter   6:  -262.63994382170182   -6.55026e-06   2.45264e-06 DIIS
   @DF-RHF iter   7:  -262.63994477407425   -9.52372e-07   6.40130e-07 DIIS
   @DF-RHF iter   8:  -262.63994484796240   -7.38881e-08   9.91693e-08 DIIS
   @DF-RHF iter   9:  -262.63994484994851   -1.98611e-09   1.88228e-08 DIIS
   @DF-RHF iter  10:  -262.63994485001990   -7.13953e-11   3.19151e-09 DIIS
   @DF-RHF iter  11:  -262.63994485002166   -1.76215e-12   5.22318e-10 DIIS
   @DF-RHF iter  12:  -262.63994485002132    3.41061e-13   9.54411e-11 DIIS
  Energy and wave function converged.


  ==> Post-Iterations <==

    Orbital Energies [Eh]
    ---------------------

    Doubly Occupied:                                                      

       1A    -15.598072     2A    -15.598053     3A    -11.274239  
       4A    -11.274194     5A    -11.272975     6A    -11.272969  
       7A     -1.313347     8A     -1.224176     9A     -1.076803  
      10A     -0.922662    11A     -0.919282    12A     -0.760637  
      13A     -0.738402    14A     -0.706214    15A     -0.647687  
      16A     -0.580711    17A     -0.574369    18A     -0.497113  
      19A     -0.434288    20A     -0.415855    21A     -0.359924  

    Virtual:                                                              

      22A      0.022400    23A      0.034497    24A      0.039476  
      25A      0.040738    26A      0.041143    27A      0.048383  
      28A      0.058591    29A      0.058815    30A      0.067113  
      31A      0.079649    32A      0.085014    33A      0.099419  
      34A      0.100948    35A      0.103958    36A      0.108477  
      37A      0.108816    38A      0.114201    39A      0.114951  
      40A      0.122466    41A      0.123776    42A      0.125322  
      43A      0.125554    44A      0.128661    45A      0.130911  
      46A      0.132889    47A      0.134113    48A      0.152068  
      49A      0.152990    50A      0.158199    51A      0.159309  
      52A      0.161084    53A      0.161326    54A      0.163914  
      55A      0.175179    56A      0.176707    57A      0.186918  
      58A      0.197763    59A      0.203872    60A      0.203908  
      61A      0.206625    62A      0.212538    63A      0.222348  
      64A      0.233575    65A      0.239400    66A      0.250517  
      67A      0.255184    68A      0.267756    69A      0.270740  
      70A      0.278056    71A      0.287812    72A      0.293207  
      73A      0.295749    74A      0.302288    75A      0.314832  
      76A      0.320457    77A      0.320602    78A      0.328121  
      79A      0.331266    80A      0.344080    81A      0.355428  
      82A      0.357908    83A      0.364661    84A      0.380461  
      85A      0.382583    86A      0.385600    87A      0.398891  
      88A      0.401235    89A      0.409895    90A      0.419234  
      91A      0.424915    92A      0.425453    93A      0.433925  
      94A      0.437212    95A      0.441896    96A      0.452092  
      97A      0.460620    98A      0.461067    99A      0.471483  
     100A      0.476049   101A      0.478782   102A      0.492140  
     103A      0.504862   104A      0.507785   105A      0.514914  
     106A      0.523728   107A      0.524547   108A      0.528668  
     109A      0.535696   110A      0.554577   111A      0.557807  
     112A      0.561478   113A      0.564457   114A      0.570535  
     115A      0.581867   116A      0.587535   117A      0.591506  
     118A      0.593799   119A      0.595971   120A      0.608929  
     121A      0.615104   122A      0.620124   123A      0.636328  
     124A      0.643517   125A      0.644321   126A      0.649318  
     127A      0.651453   128A      0.679376   129A      0.685136  
     130A      0.685277   131A      0.687758   132A      0.689932  
     133A      0.690342   134A      0.694828   135A      0.703829  
     136A      0.719853   137A      0.728356   138A      0.746558  
     139A      0.746752   140A      0.754817   141A      0.766965  
     142A      0.775645   143A      0.781406   144A      0.793594  
     145A      0.799815   146A      0.802710   147A      0.811056  
     148A      0.811941   149A      0.819016   150A      0.824714  
     151A      0.831071   152A      0.847513   153A      0.848025  
     154A      0.849147   155A      0.868569   156A      0.880544  
     157A      0.886410   158A      0.888111   159A      0.894682  
     160A      0.906067   161A      0.929075   162A      0.929272  
     163A      0.939466   164A      0.947654   165A      0.949307  
     166A      0.970744   167A      0.976897   168A      0.986599  
     169A      0.996652   170A      0.998908   171A      1.013015  
     172A      1.032382   173A      1.033370   174A      1.046893  
     175A      1.051194   176A      1.076227   177A      1.089381  
     178A      1.090239   179A      1.100445   180A      1.122199  
     181A      1.124044   182A      1.130625   183A      1.134362  
     184A      1.140228   185A      1.158740   186A      1.168552  
     187A      1.170639   188A      1.173565   189A      1.192170  
     190A      1.193203   191A      1.200436   192A      1.222279  
     193A      1.235416   194A      1.238804   195A      1.250990  
     196A      1.307520   197A      1.309674   198A      1.318224  
     199A      1.326376   200A      1.329573   201A      1.331148  
     202A      1.346770   203A      1.389177   204A      1.414282  
     205A      1.448351   206A      1.451526   207A      1.455422  
     208A      1.479096   209A      1.486137   210A      1.487167  
     211A      1.488075   212A      1.499211   213A      1.502846  
     214A      1.518252   215A      1.572686   216A      1.574192  
     217A      1.587836   218A      1.635982   219A      1.640505  
     220A      1.648219   221A      1.659204   222A      1.676552  
     223A      1.698029   224A      1.716991   225A      1.746597  
     226A      1.755104   227A      1.783762   228A      1.815727  
     229A      1.893323   230A      1.916137   231A      1.964829  
     232A      1.987674   233A      2.031202   234A      2.070192  
     235A      2.091548   236A      2.101028   237A      2.102730  
     238A      2.119409   239A      2.142953   240A      2.156641  
     241A      2.159155   242A      2.163355   243A      2.190488  
     244A      2.193301   245A      2.194825   246A      2.200380  
     247A      2.202410   248A      2.227626   249A      2.234740  
     250A      2.241168   251A      2.249626   252A      2.309980  
     253A      2.312761   254A      2.319512   255A      2.355229  
     256A      2.384770   257A      2.419174   258A      2.430957  
     259A      2.435378   260A      2.438131   261A      2.438977  
     262A      2.472642   263A      2.486689   264A      2.498286  
     265A      2.519379   266A      2.522395   267A      2.525033  
     268A      2.545961   269A      2.568293   270A      2.584766  
     271A      2.592338   272A      2.606266   273A      2.625938  
     274A      2.665224   275A      2.675409   276A      2.686395  
     277A      2.713985   278A      2.716863   279A      2.718591  
     280A      2.726617   281A      2.767900   282A      2.844014  
     283A      2.865761   284A      2.904002   285A      2.939196  
     286A      2.947192   287A      2.955716   288A      2.973306  
     289A      3.001855   290A      3.017872   291A      3.032186  
     292A      3.058296   293A      3.065195   294A      3.094137  
     295A      3.113835   296A      3.220316   297A      3.245695  
     298A      3.255980   299A      3.284880   300A      3.289647  
     301A      3.321928   302A      3.337707   303A      3.340453  
     304A      3.348625   305A      3.351348   306A      3.366140  
     307A      3.412596   308A      3.413367   309A      3.470751  
     310A      3.501952   311A      3.514920   312A      3.521359  
     313A      3.590655   314A      3.604434   315A      3.605641  
     316A      3.627769   317A      3.700481   318A      3.818922  
     319A      3.830685   320A      3.940966   321A      3.969093  
     322A      3.977236   323A      4.011400   324A      4.194755  
     325A      4.242248   326A      4.253485   327A      4.441986  
     328A      4.546826   329A      4.579274   330A      4.867637  
     331A      4.976141   332A      5.057849   333A      5.261709  
     334A      5.316537   335A      5.630195   336A      5.691321  
     337A      5.827145   338A      5.952630   339A      6.283826  
     340A      6.306887   341A      6.453764   342A      6.631198  
     343A     18.125715   344A     18.207977   345A     19.017573  
     346A     19.342998   347A     25.287058   348A     25.374778  

    Final Occupation by Irrep:
              A 
    DOCC [    21 ]

  @DF-RHF Final Energy:  -262.63994485002132

   => Energetics <=

    Nuclear Repulsion Energy =            212.5517310423005313
    One-Electron Energy =                -775.4594094963908901
    Two-Electron Energy =                 300.2677336040690648
    Total Energy =                       -262.6399448500213225

Computation Completed


Properties will be evaluated at   0.000000,   0.000000,   0.000000 [a0]

Properties computed using the SCF density matrix

  Nuclear Dipole Moment: [e a0]
     X:  -685.0615      Y:  -887.4694      Z:  -870.9683

  Electronic Dipole Moment: [e a0]
     X:   685.0615      Y:   887.4694      Z:   870.9683

  Dipole Moment: [e a0]
     X:     0.0000      Y:    -0.0000      Z:     0.0000     Total:     0.0000

  Dipole Moment: [D]
     X:     0.0000      Y:    -0.0000      Z:     0.0000     Total:     0.0000


*** tstop() called on atl1-1-01-013-7-l.pace.gatech.edu at Mon Nov 29 16:19:30 2021
Module time:
	user time   =      13.62 seconds =       0.23 minutes
	system time =       0.46 seconds =       0.01 minutes
	total time  =          8 seconds =       0.13 minutes
Total time:
	user time   =      50.10 seconds =       0.84 minutes
	system time =       1.87 seconds =       0.03 minutes
	total time  =         29 seconds =       0.48 minutes
  Constructing Basis Sets for SAPT...

   => Loading Basis Set <=

    Name: (AUG-CC-PVDZ AUX)
    Role: RIFIT
    Keyword: DF_BASIS_SAPT
    atoms 1-2, 11-12  entry N          line   158 file /storage/home/hhive1/csargent30/data/miniconda3/envs/psi4/share/psi4/basis/aug-cc-pvdz-ri.gbs 
    atoms 3-6, 13-16  entry H          line    30 file /storage/home/hhive1/csargent30/data/miniconda3/envs/psi4/share/psi4/basis/aug-cc-pvdz-ri.gbs 
    atoms 7-10, 17-20 entry C          line   112 file /storage/home/hhive1/csargent30/data/miniconda3/envs/psi4/share/psi4/basis/aug-cc-pvdz-ri.gbs 


  //>>>>>>>>>>>>>>>>>>>>>>>>>>>>>>>>>>>//
  //               SAPT0               //
  //<<<<<<<<<<<<<<<<<<<<<<<<<<<<<<<<<<<//


*** tstart() called on atl1-1-01-013-7-l.pace.gatech.edu
*** at Mon Nov 29 16:19:30 2021

        SAPT0  
    Ed Hohenstein
     6 June 2009

      Orbital Information
  --------------------------
    NSO        =       348
    NMO        =       348
    NRI        =      1048
    NOCC A     =        21
    NOCC B     =        21
    FOCC A     =         6
    FOCC B     =         6
    NVIR A     =       327
    NVIR B     =       327

    Elst10,r            =    -0.000000848953 [Eh]
    Exch10              =     0.000000000000 [Eh]
    Exch10 (S^2)        =     0.000000000000 [Eh]

    Iter     Energy [mEh]          dE [mEh]         Residual      Time [s]
       1      -0.00000156       0.000001563       0.014153190             0
       2      -0.00000139      -0.000000169       0.002964427             1
       3      -0.00000154       0.000000145       0.001241369             1
       4      -0.00000156       0.000000017       0.000611441             1
       5      -0.00000155      -0.000000007       0.000336234             2
       6      -0.00000155      -0.000000003       0.000098700             2
       7      -0.00000155       0.000000001       0.000031427             2
       8      -0.00000155       0.000000000       0.000008338             3
       9      -0.00000155      -0.000000000       0.000002958             3
      10      -0.00000155      -0.000000000       0.000000782             4

    CHF Iterations converged


    Iter     Energy [mEh]          dE [mEh]         Residual      Time [s]
       1      -0.00000156       0.000001563       0.014153189             0
       2      -0.00000139      -0.000000169       0.002964427             0
       3      -0.00000154       0.000000145       0.001241369             1
       4      -0.00000156       0.000000017       0.000611441             1
       5      -0.00000155      -0.000000007       0.000336234             1
       6      -0.00000155      -0.000000003       0.000098700             2
       7      -0.00000155       0.000000001       0.000031427             2
       8      -0.00000155       0.000000000       0.000008338             2
       9      -0.00000155      -0.000000000       0.000002958             3
      10      -0.00000155      -0.000000000       0.000000782             3

    CHF Iterations converged

    Ind20,r (A<-B)      =    -0.000000001547 [Eh]
    Ind20,r (B<-A)      =    -0.000000001547 [Eh]
    Ind20,r             =    -0.000000003094 [Eh]
    Exch-Ind20,r (A<-B) =     0.000000000000 [Eh]
    Exch-Ind20,r (B<-A) =     0.000000000000 [Eh]
    Exch-Ind20,r        =     0.000000000000 [Eh]
    Disp20              =    -0.000000766370 [Eh]
    Disp20 (SS)         =    -0.000000383185 [Eh]
    Disp20 (OS)         =    -0.000000383185 [Eh]
    Exch-Disp20         =     0.000000000000 [Eh]
    Exch-Disp20 (SS)    =     0.000000000000 [Eh]
    Exch-Disp20 (OS)    =     0.000000000000 [Eh]

    SAPT Results 
  --------------------------------------------------------------------------------------------------------
    Electrostatics                 -0.00084895 [mEh]      -0.00053273 [kcal/mol]      -0.00222892 [kJ/mol]
      Elst10,r                     -0.00084895 [mEh]      -0.00053273 [kcal/mol]      -0.00222892 [kJ/mol]

    Exchange                        0.00000000 [mEh]       0.00000000 [kcal/mol]       0.00000000 [kJ/mol]
      Exch10                        0.00000000 [mEh]       0.00000000 [kcal/mol]       0.00000000 [kJ/mol]
      Exch10(S^2)                   0.00000000 [mEh]       0.00000000 [kcal/mol]       0.00000000 [kJ/mol]

    Induction                       0.00000936 [mEh]       0.00000587 [kcal/mol]       0.00002457 [kJ/mol]
      Ind20,r                      -0.00000309 [mEh]      -0.00000194 [kcal/mol]      -0.00000812 [kJ/mol]
      Exch-Ind20,r                  0.00000000 [mEh]       0.00000000 [kcal/mol]       0.00000000 [kJ/mol]
      delta HF,r (2)                0.00001245 [mEh]       0.00000781 [kcal/mol]       0.00003270 [kJ/mol]

    Dispersion                     -0.00076637 [mEh]      -0.00048090 [kcal/mol]      -0.00201210 [kJ/mol]
      Disp20                       -0.00076637 [mEh]      -0.00048090 [kcal/mol]      -0.00201210 [kJ/mol]
      Exch-Disp20                   0.00000000 [mEh]       0.00000000 [kcal/mol]       0.00000000 [kJ/mol]
      Disp20 (SS)                  -0.00038318 [mEh]      -0.00024045 [kcal/mol]      -0.00100605 [kJ/mol]
      Disp20 (OS)                  -0.00038318 [mEh]      -0.00024045 [kcal/mol]      -0.00100605 [kJ/mol]
      Exch-Disp20 (SS)              0.00000000 [mEh]       0.00000000 [kcal/mol]       0.00000000 [kJ/mol]
      Exch-Disp20 (OS)              0.00000000 [mEh]       0.00000000 [kcal/mol]       0.00000000 [kJ/mol]

  Total HF                         -0.00083959 [mEh]      -0.00052685 [kcal/mol]      -0.00220435 [kJ/mol]
  Total SAPT0                      -0.00160596 [mEh]      -0.00100776 [kcal/mol]      -0.00421645 [kJ/mol]

  Special recipe for scaled SAPT0 (see Manual):
    Electrostatics sSAPT0          -0.00084895 [mEh]      -0.00053273 [kcal/mol]      -0.00222892 [kJ/mol]
    Exchange sSAPT0                 0.00000000 [mEh]       0.00000000 [kcal/mol]       0.00000000 [kJ/mol]
    Induction sSAPT0                0.00000936 [mEh]       0.00000587 [kcal/mol]       0.00002457 [kJ/mol]
    Dispersion sSAPT0              -0.00076637 [mEh]      -0.00048090 [kcal/mol]      -0.00201210 [kJ/mol]
  Total sSAPT0                     -0.00160596 [mEh]      -0.00100776 [kcal/mol]      -0.00421645 [kJ/mol]
  --------------------------------------------------------------------------------------------------------

*** tstop() called on atl1-1-01-013-7-l.pace.gatech.edu at Mon Nov 29 16:19:54 2021
Module time:
	user time   =      36.50 seconds =       0.61 minutes
	system time =       8.36 seconds =       0.14 minutes
	total time  =         24 seconds =       0.40 minutes
Total time:
	user time   =      86.85 seconds =       1.45 minutes
	system time =      10.24 seconds =       0.17 minutes
	total time  =         53 seconds =       0.88 minutes


Warning! sapt0 does not have an associated derived wavefunction.The returned wavefunction is the dimer SCF wavefunction.


    Psi4 stopped on: Monday, 29 November 2021 04:19PM
    Psi4 wall time for execution: 0:00:52.43

*** Psi4 exiting successfully. Buy a developer a beer!
