
    -----------------------------------------------------------------------
          Psi4: An Open-Source Ab Initio Electronic Structure Package
                               Psi4 1.4.1 release

                         Git: Rev {HEAD} cd00f19


    D. G. A. Smith, L. A. Burns, A. C. Simmonett, R. M. Parrish,
    M. C. Schieber, R. Galvelis, P. Kraus, H. Kruse, R. Di Remigio,
    A. Alenaizan, A. M. James, S. Lehtola, J. P. Misiewicz, M. Scheurer,
    R. A. Shaw, J. B. Schriber, Y. Xie, Z. L. Glick, D. A. Sirianni,
    J. S. O'Brien, J. M. Waldrop, A. Kumar, E. G. Hohenstein,
    B. P. Pritchard, B. R. Brooks, H. F. Schaefer III, A. Yu. Sokolov,
    K. Patkowski, A. E. DePrince III, U. Bozkaya, R. A. King,
    F. A. Evangelista, J. M. Turney, T. D. Crawford, C. D. Sherrill,
    J. Chem. Phys. 152(18) 184108 (2020). https://doi.org/10.1063/5.0006002

                            Additional Code Authors
    E. T. Seidl, C. L. Janssen, E. F. Valeev, M. L. Leininger,
    J. F. Gonthier, R. M. Richard, H. R. McAlexander, M. Saitow, X. Wang,
    P. Verma, and M. H. Lechner

             Previous Authors, Complete List of Code Contributors,
                       and Citations for Specific Modules
    https://github.com/psi4/psi4/blob/master/codemeta.json
    https://github.com/psi4/psi4/graphs/contributors
    http://psicode.org/psi4manual/master/introduction.html#citing-psifour

    -----------------------------------------------------------------------


    Psi4 started on: Monday, 29 November 2021 04:10PM

    Process ID: 382564
    Host:       atl1-1-01-013-15-r.pace.gatech.edu
    PSIDATADIR: /storage/home/hhive1/csargent30/data/miniconda3/envs/psi4/share/psi4
    Memory:     500.0 MiB
    Threads:    2

  ==> Input File <==

--------------------------------------------------------------------------
# PSI4 file produced by CrystaLattE

# Generated from:               pyrazine.xyz
# Psithon input for N-mer:      2mer-0+45
# Number of atoms per monomer:  [10, 10]
# Number of replicas:           4
# COM priority:                 9.434194982688e-05
# Minimum COM separations:      11.624
# Separation priority:          3.306545373012e-04
# Minimum monomer separations:  7.653
# Cutoff priority:              2.286472498362e-05
# Nuclear repulsion energy:     506.0415664527793

memory 7 GB

molecule Dimer_0_45 {
  N           -1.33084758       0.98032658       0.42627037
  N            3.95377333       0.98032658       0.42627037
  H            3.56713674       4.35218569      -0.94230973
  H           -0.94421098       4.35218569      -0.94230973
  H           -0.94421098      -2.39153253       1.79485047
  H            3.56713674      -2.39153253       1.79485047
  C            2.62292576       2.94097974      -0.42627037
  C            0.00000000       2.94097974      -0.42627037
  C            0.00000000      -0.98032658       1.27881112
  C            2.62292576      -0.98032658       1.27881112
--
  N          -18.95329959     -10.07494920       7.48080697
  N          -13.66867868     -10.07494920       7.48080697
  H          -14.05531527      -6.70309009       6.11222687
  H          -18.56666299      -6.70309009       6.11222687
  H          -18.56666299     -13.44680831       8.84938707
  H          -14.05531527     -13.44680831       8.84938707
  C          -14.99952625      -8.11429604       6.62826622
  C          -17.62245201      -8.11429604       6.62826622
  C          -17.62245201     -12.03560236       8.33334772
  C          -14.99952625     -12.03560236       8.33334772
units = au
no_com
no_reorient
}

set {
  e_convergence 10
  d_convergence 10
  scf_type df
  mp2_type df
  cc_type df
  freeze_core true
}

energy('sapt0/aug-cc-pvdz')

--------------------------------------------------------------------------

  Memory set to   6.519 GiB by Python driver.

Scratch directory: /tmp/

Scratch directory: /tmp/

  //>>>>>>>>>>>>>>>>>>>>>>>>>>>>>>>>>>>//
  //              Dimer HF             //
  //<<<<<<<<<<<<<<<<<<<<<<<<<<<<<<<<<<<//


*** tstart() called on atl1-1-01-013-15-r.pace.gatech.edu
*** at Mon Nov 29 16:10:41 2021

   => Loading Basis Set <=

    Name: AUG-CC-PVDZ
    Role: ORBITAL
    Keyword: BASIS
    atoms 1-2, 11-12  entry N          line   218 file /storage/home/hhive1/csargent30/data/miniconda3/envs/psi4/share/psi4/basis/aug-cc-pvdz.gbs
    atoms 3-6, 13-16  entry H          line    40 file /storage/home/hhive1/csargent30/data/miniconda3/envs/psi4/share/psi4/basis/aug-cc-pvdz.gbs
    atoms 7-10, 17-20 entry C          line   182 file /storage/home/hhive1/csargent30/data/miniconda3/envs/psi4/share/psi4/basis/aug-cc-pvdz.gbs


         ---------------------------------------------------------
                                   SCF
               by Justin Turney, Rob Parrish, Andy Simmonett
                          and Daniel G. A. Smith
                              RHF Reference
                        2 Threads,   6675 MiB Core
         ---------------------------------------------------------

  ==> Geometry <==

    Molecular point group: c1
    Full point group: C1

    Geometry (in Bohr), charge = 0, multiplicity = 1:

       Center              X                  Y                   Z               Mass
    ------------   -----------------  -----------------  -----------------  -----------------
         N           -1.330847580000     0.980326580000     0.426270370000    14.003074004430
         N            3.953773330000     0.980326580000     0.426270370000    14.003074004430
         H            3.567136740000     4.352185690000    -0.942309730000     1.007825032230
         H           -0.944210980000     4.352185690000    -0.942309730000     1.007825032230
         H           -0.944210980000    -2.391532530000     1.794850470000     1.007825032230
         H            3.567136740000    -2.391532530000     1.794850470000     1.007825032230
         C            2.622925760000     2.940979740000    -0.426270370000    12.000000000000
         C            0.000000000000     2.940979740000    -0.426270370000    12.000000000000
         C            0.000000000000    -0.980326580000     1.278811120000    12.000000000000
         C            2.622925760000    -0.980326580000     1.278811120000    12.000000000000
         N          -18.953299590000   -10.074949200000     7.480806970000    14.003074004430
         N          -13.668678680000   -10.074949200000     7.480806970000    14.003074004430
         H          -14.055315270000    -6.703090090000     6.112226870000     1.007825032230
         H          -18.566662990000    -6.703090090000     6.112226870000     1.007825032230
         H          -18.566662990000   -13.446808310000     8.849387070000     1.007825032230
         H          -14.055315270000   -13.446808310000     8.849387070000     1.007825032230
         C          -14.999526250000    -8.114296040000     6.628266220000    12.000000000000
         C          -17.622452010000    -8.114296040000     6.628266220000    12.000000000000
         C          -17.622452010000   -12.035602360000     8.333347720000    12.000000000000
         C          -14.999526250000   -12.035602360000     8.333347720000    12.000000000000

  Running in c1 symmetry.

  Rotational constants: A =      0.09195  B =      0.00173  C =      0.00171 [cm^-1]
  Rotational constants: A =   2756.70120  B =     52.00824  C =     51.29690 [MHz]
  Nuclear repulsion =  506.041566383594727

  Charge       = 0
  Multiplicity = 1
  Electrons    = 84
  Nalpha       = 42
  Nbeta        = 42

  ==> Algorithm <==

  SCF Algorithm Type is DF.
  DIIS enabled.
  MOM disabled.
  Fractional occupation disabled.
  Guess Type is SAD.
  Energy threshold   = 1.00e-10
  Density threshold  = 1.00e-10
  Integral threshold = 1.00e-12

  ==> Primary Basis <==

  Basis Set: AUG-CC-PVDZ
    Blend: AUG-CC-PVDZ
    Number of shells: 148
    Number of basis functions: 348
    Number of Cartesian functions: 372
    Spherical Harmonics?: true
    Max angular momentum: 2

   => Loading Basis Set <=

    Name: (AUG-CC-PVDZ AUX)
    Role: JKFIT
    Keyword: DF_BASIS_SCF
    atoms 1-2, 11-12  entry N          line   212 file /storage/home/hhive1/csargent30/data/miniconda3/envs/psi4/share/psi4/basis/aug-cc-pvdz-jkfit.gbs
    atoms 3-6, 13-16  entry H          line    70 file /storage/home/hhive1/csargent30/data/miniconda3/envs/psi4/share/psi4/basis/aug-cc-pvdz-jkfit.gbs
    atoms 7-10, 17-20 entry C          line   154 file /storage/home/hhive1/csargent30/data/miniconda3/envs/psi4/share/psi4/basis/aug-cc-pvdz-jkfit.gbs

  ==> Integral Setup <==

  ==> DiskDFJK: Density-Fitted J/K Matrices <==

    J tasked:                  Yes
    K tasked:                  Yes
    wK tasked:                  No
    OpenMP threads:              2
    Integrals threads:           2
    Memory [MiB]:             5006
    Algorithm:                Core
    Integral Cache:           SAVE
    Schwarz Cutoff:          1E-12
    Fitting Condition:       1E-10

   => Auxiliary Basis Set <=

  Basis Set: (AUG-CC-PVDZ AUX)
    Blend: AUG-CC-PVDZ-JKFIT
    Number of shells: 432
    Number of basis functions: 1288
    Number of Cartesian functions: 1492
    Spherical Harmonics?: true
    Max angular momentum: 3

  Minimum eigenvalue in the overlap matrix is 8.8859020109E-06.
  Reciprocal condition number of the overlap matrix is 6.9297670900E-07.
    Using symmetric orthogonalization.

  ==> Pre-Iterations <==

  SCF Guess: Superposition of Atomic Densities via on-the-fly atomic UHF (no occupation information).

   -------------------------
    Irrep   Nso     Nmo
   -------------------------
     A        348     348
   -------------------------
    Total     348     348
   -------------------------

  ==> Iterations <==

                           Total Energy        Delta E     RMS |[F,P]|

   @DF-RHF iter SAD:  -524.65046358734014   -5.24650e+02   0.00000e+00
   @DF-RHF iter   1:  -525.07893559797571   -4.28472e-01   1.58363e-03 DIIS
   @DF-RHF iter   2:  -525.25769144593505   -1.78756e-01   5.80614e-04 DIIS
   @DF-RHF iter   3:  -525.27735330805604   -1.96619e-02   1.81294e-04 DIIS
   @DF-RHF iter   4:  -525.27980158329649   -2.44828e-03   5.33687e-05 DIIS
   @DF-RHF iter   5:  -525.27998057408206   -1.78991e-04   1.06867e-05 DIIS
   @DF-RHF iter   6:  -525.27999366951724   -1.30954e-05   3.46707e-06 DIIS
   @DF-RHF iter   7:  -525.27999557158387   -1.90207e-06   9.06128e-07 DIIS
   @DF-RHF iter   8:  -525.27999571880628   -1.47222e-07   1.64686e-07 DIIS
   @DF-RHF iter   9:  -525.27999572281249   -4.00621e-09   8.63631e-08 DIIS
   @DF-RHF iter  10:  -525.27999572342628   -6.13795e-10   1.74871e-08 DIIS
   @DF-RHF iter  11:  -525.27999572347210   -4.58158e-11   4.42063e-09 DIIS
   @DF-RHF iter  12:  -525.27999572347369   -1.59162e-12   2.11881e-09 DIIS
   @DF-RHF iter  13:  -525.27999572347539   -1.70530e-12   4.90440e-10 DIIS
   @DF-RHF iter  14:  -525.27999572347539    0.00000e+00   2.28891e-10 DIIS
   @DF-RHF iter  15:  -525.27999572347608   -6.82121e-13   1.10894e-10 DIIS
   @DF-RHF iter  16:  -525.27999572347574    3.41061e-13   4.29426e-11 DIIS
  Energy and wave function converged.


  ==> Post-Iterations <==

    Orbital Energies [Eh]
    ---------------------

    Doubly Occupied:

       1A    -15.597969     2A    -15.597969     3A    -15.597920
       4A    -15.597920     5A    -11.274116     6A    -11.274116
       7A    -11.274024     8A    -11.274024     9A    -11.272866
      10A    -11.272865    11A    -11.272786    12A    -11.272786
      13A     -1.313219    14A     -1.313219    15A     -1.224053
      16A     -1.224053    17A     -1.076659    18A     -1.076658
      19A     -0.922527    20A     -0.922525    21A     -0.919135
      22A     -0.919134    23A     -0.760503    24A     -0.760501
      25A     -0.738249    26A     -0.738246    27A     -0.706081
      28A     -0.706081    29A     -0.647540    30A     -0.647538
      31A     -0.580567    32A     -0.580563    33A     -0.574242
      34A     -0.574242    35A     -0.497012    36A     -0.497012
      37A     -0.434177    38A     -0.434177    39A     -0.415742
      40A     -0.415741    41A     -0.359774    42A     -0.359774

    Virtual:

      43A      0.031185    44A      0.035791    45A      0.039804
      46A      0.041686    47A      0.045997    48A      0.052881
      49A      0.058245    50A      0.067017    51A      0.067323
      52A      0.070104    53A      0.099271    54A      0.099781
      55A      0.099877    56A      0.102179    57A      0.113176
      58A      0.114375    59A      0.114458    60A      0.116149
      61A      0.118489    62A      0.120880    63A      0.126077
      64A      0.126859    65A      0.130273    66A      0.132724
      67A      0.133503    68A      0.141722    69A      0.156493
      70A      0.159235    71A      0.159590    72A      0.160086
      73A      0.161720    74A      0.162915    75A      0.169529
      76A      0.172128    77A      0.179247    78A      0.182988
      79A      0.188444    80A      0.189344    81A      0.203433
      82A      0.205066    83A      0.212234    84A      0.221743
      85A      0.250541    86A      0.250699    87A      0.263002
      88A      0.270474    89A      0.275245    90A      0.282327
      91A      0.287240    92A      0.288681    93A      0.293036
      94A      0.294017    95A      0.295772    96A      0.301575
      97A      0.314767    98A      0.319655    99A      0.321471
     100A      0.329085   101A      0.354632   102A      0.357786
     103A      0.358117   104A      0.358128   105A      0.364563
     106A      0.366639   107A      0.382014   108A      0.389180
     109A      0.399806   110A      0.400276   111A      0.409919
     112A      0.411353   113A      0.427341   114A      0.429667
     115A      0.434027   116A      0.434311   117A      0.438486
     118A      0.439019   119A      0.453717   120A      0.454332
     121A      0.471933   122A      0.477862   123A      0.492186
     124A      0.492462   125A      0.503927   126A      0.506418
     127A      0.514637   128A      0.517604   129A      0.524170
     130A      0.525314   131A      0.528116   132A      0.537818
     133A      0.554845   134A      0.554998   135A      0.570888
     136A      0.570945   137A      0.587288   138A      0.588062
     139A      0.592200   140A      0.593308   141A      0.595125
     142A      0.595303   143A      0.609262   144A      0.609306
     145A      0.642921   146A      0.643360   147A      0.645842
     148A      0.647425   149A      0.683477   150A      0.685221
     151A      0.686587   152A      0.687916   153A      0.688329
     154A      0.689922   155A      0.690579   156A      0.693206
     157A      0.695444   158A      0.699924   159A      0.702014
     160A      0.717294   161A      0.747271   162A      0.750043
     163A      0.755070   164A      0.755076   165A      0.766608
     166A      0.767821   167A      0.781535   168A      0.782049
     169A      0.799586   170A      0.800845   171A      0.803039
     172A      0.803268   173A      0.819032   174A      0.820465
     175A      0.831285   176A      0.831318   177A      0.848354
     178A      0.848630   179A      0.880742   180A      0.881165
     181A      0.886033   182A      0.887470   183A      0.894767
     184A      0.894900   185A      0.929271   186A      0.929725
     187A      0.938991   188A      0.941549   189A      0.949618
     190A      0.950654   191A      0.997577   192A      0.997900
     193A      0.999179   194A      1.004302   195A      1.013117
     196A      1.013160   197A      1.035164   198A      1.035682
     199A      1.051388   200A      1.051539   201A      1.089518
     202A      1.089586   203A      1.100384   204A      1.101794
     205A      1.122693   206A      1.123359   207A      1.123913
     208A      1.124736   209A      1.134489   210A      1.135436
     211A      1.159014   212A      1.159525   213A      1.173728
     214A      1.173852   215A      1.235516   216A      1.235897
     217A      1.239101   218A      1.239118   219A      1.310472
     220A      1.310753   221A      1.331452   222A      1.331710
     223A      1.414426   224A      1.414533   225A      1.450687
     226A      1.453608   227A      1.486084   228A      1.486967
     229A      1.488238   230A      1.489192   231A      1.500853
     232A      1.501138   233A      1.503849   234A      1.505032
     235A      1.518863   236A      1.519673   237A      1.572755
     238A      1.573028   239A      1.573599   240A      1.575651
     241A      1.587314   242A      1.589822   243A      1.635836
     244A      1.636938   245A      1.640439   246A      1.641247
     247A      1.647900   248A      1.653774   249A      1.677699
     250A      1.679759   251A      1.717057   252A      1.717240
     253A      1.746748   254A      1.746761   255A      1.755207
     256A      1.755651   257A      1.783791   258A      1.786939
     259A      1.815883   260A      1.815901   261A      1.893475
     262A      1.893512   263A      1.915931   264A      1.917315
     265A      1.964899   266A      1.965570   267A      1.988189
     268A      1.988233   269A      2.031179   270A      2.031678
     271A      2.091714   272A      2.091740   273A      2.100780
     274A      2.102319   275A      2.143676   276A      2.143927
     277A      2.163323   278A      2.164058   279A      2.190601
     280A      2.190707   281A      2.194398   282A      2.194674
     283A      2.200619   284A      2.201062   285A      2.202575
     286A      2.202624   287A      2.227711   288A      2.227949
     289A      2.312934   290A      2.314078   291A      2.355810
     292A      2.358048   293A      2.430923   294A      2.432511
     295A      2.438723   296A      2.439625   297A      2.520030
     298A      2.520347   299A      2.522420   300A      2.522701
     301A      2.585000   302A      2.585773   303A      2.606382
     304A      2.606588   305A      2.665348   306A      2.665456
     307A      2.675551   308A      2.675551   309A      2.686429
     310A      2.688180   311A      2.711840   312A      2.717876
     313A      2.719447   314A      2.719652   315A      2.844137
     316A      2.844148   317A      2.865862   318A      2.866017
     319A      2.938950   320A      2.939940   321A      3.001604
     322A      3.002656   323A      3.018196   324A      3.018823
     325A      3.032419   326A      3.033096   327A      3.094388
     328A      3.095273   329A      3.219334   330A      3.226053
     331A      3.256277   332A      3.256398   333A      3.285302
     334A      3.285465   335A      3.366463   336A      3.366776
     337A      3.413176   338A      3.414467   339A      3.515082
     340A      3.515233   341A      3.590074   342A      3.592331
     343A      3.627913   344A      3.628131   345A      3.977120
     346A      3.978278   347A      4.253364   348A      4.254514

    Final Occupation by Irrep:
              A
    DOCC [    42 ]

  @DF-RHF Final Energy:  -525.27999572347574

   => Energetics <=

    Nuclear Repulsion Energy =            506.0415663835947271
    One-Electron Energy =               -1712.8065097969717954
    Two-Electron Energy =                 681.4849476899013325
    Total Energy =                       -525.2799957234757358

Computation Completed


Properties will be evaluated at   0.000000,   0.000000,   0.000000 [a0]

Properties computed using the SCF density matrix

  Nuclear Dipole Moment: [e a0]
     X:  -629.9801      Y:  -381.9742      Z:   332.0972

  Electronic Dipole Moment: [e a0]
     X:   629.9801      Y:   381.9742      Z:  -332.0972

  Dipole Moment: [e a0]
     X:     0.0000      Y:     0.0000      Z:    -0.0000     Total:     0.0000

  Dipole Moment: [D]
     X:     0.0000      Y:     0.0000      Z:    -0.0000     Total:     0.0000


*** tstop() called on atl1-1-01-013-15-r.pace.gatech.edu at Mon Nov 29 16:11:00 2021
Module time:
	user time   =      33.96 seconds =       0.57 minutes
	system time =       1.12 seconds =       0.02 minutes
	total time  =         19 seconds =       0.32 minutes
Total time:
	user time   =      33.96 seconds =       0.57 minutes
	system time =       1.12 seconds =       0.02 minutes
	total time  =         19 seconds =       0.32 minutes

  //>>>>>>>>>>>>>>>>>>>>>>>>>>>>>>>>>>>//
  //            Monomer A HF           //
  //<<<<<<<<<<<<<<<<<<<<<<<<<<<<<<<<<<<//


*** tstart() called on atl1-1-01-013-15-r.pace.gatech.edu
*** at Mon Nov 29 16:11:00 2021

   => Loading Basis Set <=

    Name: AUG-CC-PVDZ
    Role: ORBITAL
    Keyword: BASIS
    atoms 1-2, 11-12  entry N          line   218 file /storage/home/hhive1/csargent30/data/miniconda3/envs/psi4/share/psi4/basis/aug-cc-pvdz.gbs
    atoms 3-6, 13-16  entry H          line    40 file /storage/home/hhive1/csargent30/data/miniconda3/envs/psi4/share/psi4/basis/aug-cc-pvdz.gbs
    atoms 7-10, 17-20 entry C          line   182 file /storage/home/hhive1/csargent30/data/miniconda3/envs/psi4/share/psi4/basis/aug-cc-pvdz.gbs


         ---------------------------------------------------------
                                   SCF
               by Justin Turney, Rob Parrish, Andy Simmonett
                          and Daniel G. A. Smith
                              RHF Reference
                        2 Threads,   6675 MiB Core
         ---------------------------------------------------------

  ==> Geometry <==

    Molecular point group: c1
    Full point group: C1

    Geometry (in Bohr), charge = 0, multiplicity = 1:

       Center              X                  Y                   Z               Mass
    ------------   -----------------  -----------------  -----------------  -----------------
         N           -1.330847580000     0.980326580000     0.426270370000    14.003074004430
         N            3.953773330000     0.980326580000     0.426270370000    14.003074004430
         H            3.567136740000     4.352185690000    -0.942309730000     1.007825032230
         H           -0.944210980000     4.352185690000    -0.942309730000     1.007825032230
         H           -0.944210980000    -2.391532530000     1.794850470000     1.007825032230
         H            3.567136740000    -2.391532530000     1.794850470000     1.007825032230
         C            2.622925760000     2.940979740000    -0.426270370000    12.000000000000
         C            0.000000000000     2.940979740000    -0.426270370000    12.000000000000
         C            0.000000000000    -0.980326580000     1.278811120000    12.000000000000
         C            2.622925760000    -0.980326580000     1.278811120000    12.000000000000
      Gh(N)         -18.953299590000   -10.074949200000     7.480806970000    14.003074004430
      Gh(N)         -13.668678680000   -10.074949200000     7.480806970000    14.003074004430
      Gh(H)         -14.055315270000    -6.703090090000     6.112226870000     1.007825032230
      Gh(H)         -18.566662990000    -6.703090090000     6.112226870000     1.007825032230
      Gh(H)         -18.566662990000   -13.446808310000     8.849387070000     1.007825032230
      Gh(H)         -14.055315270000   -13.446808310000     8.849387070000     1.007825032230
      Gh(C)         -14.999526250000    -8.114296040000     6.628266220000    12.000000000000
      Gh(C)         -17.622452010000    -8.114296040000     6.628266220000    12.000000000000
      Gh(C)         -17.622452010000   -12.035602360000     8.333347720000    12.000000000000
      Gh(C)         -14.999526250000   -12.035602360000     8.333347720000    12.000000000000

  Running in c1 symmetry.

  Rotational constants: A =      0.09195  B =      0.00173  C =      0.00171 [cm^-1]
  Rotational constants: A =   2756.70120  B =     52.00824  C =     51.29690 [MHz]
  Nuclear repulsion =  212.551731110485349

  Charge       = 0
  Multiplicity = 1
  Electrons    = 42
  Nalpha       = 21
  Nbeta        = 21

  ==> Algorithm <==

  SCF Algorithm Type is DF.
  DIIS enabled.
  MOM disabled.
  Fractional occupation disabled.
  Guess Type is SAD.
  Energy threshold   = 1.00e-10
  Density threshold  = 1.00e-10
  Integral threshold = 1.00e-12

  ==> Primary Basis <==

  Basis Set: AUG-CC-PVDZ
    Blend: AUG-CC-PVDZ
    Number of shells: 148
    Number of basis functions: 348
    Number of Cartesian functions: 372
    Spherical Harmonics?: true
    Max angular momentum: 2

   => Loading Basis Set <=

    Name: (AUG-CC-PVDZ AUX)
    Role: JKFIT
    Keyword: DF_BASIS_SCF
    atoms 1-2, 11-12  entry N          line   212 file /storage/home/hhive1/csargent30/data/miniconda3/envs/psi4/share/psi4/basis/aug-cc-pvdz-jkfit.gbs
    atoms 3-6, 13-16  entry H          line    70 file /storage/home/hhive1/csargent30/data/miniconda3/envs/psi4/share/psi4/basis/aug-cc-pvdz-jkfit.gbs
    atoms 7-10, 17-20 entry C          line   154 file /storage/home/hhive1/csargent30/data/miniconda3/envs/psi4/share/psi4/basis/aug-cc-pvdz-jkfit.gbs

  ==> Integral Setup <==

  ==> DiskDFJK: Density-Fitted J/K Matrices <==

    J tasked:                  Yes
    K tasked:                  Yes
    wK tasked:                  No
    OpenMP threads:              2
    Integrals threads:           2
    Memory [MiB]:             5006
    Algorithm:                Core
    Integral Cache:           LOAD
    Schwarz Cutoff:          1E-12
    Fitting Condition:       1E-10

   => Auxiliary Basis Set <=

  Basis Set: (AUG-CC-PVDZ AUX)
    Blend: AUG-CC-PVDZ-JKFIT
    Number of shells: 432
    Number of basis functions: 1288
    Number of Cartesian functions: 1492
    Spherical Harmonics?: true
    Max angular momentum: 3

  Minimum eigenvalue in the overlap matrix is 8.8859020109E-06.
  Reciprocal condition number of the overlap matrix is 6.9297670900E-07.
    Using symmetric orthogonalization.

  ==> Pre-Iterations <==

  SCF Guess: Superposition of Atomic Densities via on-the-fly atomic UHF (no occupation information).

   -------------------------
    Irrep   Nso     Nmo
   -------------------------
     A        348     348
   -------------------------
    Total     348     348
   -------------------------

  ==> Iterations <==

                           Total Energy        Delta E     RMS |[F,P]|

   @DF-RHF iter SAD:  -262.32523128964556   -2.62325e+02   0.00000e+00
   @DF-RHF iter   1:  -262.53942085959613   -2.14190e-01   1.11987e-03 DIIS
   @DF-RHF iter   2:  -262.62880206788037   -8.93812e-02   4.10668e-04 DIIS
   @DF-RHF iter   3:  -262.63863673229088   -9.83466e-03   1.28246e-04 DIIS
   @DF-RHF iter   4:  -262.63986145524041   -1.22472e-03   3.77601e-05 DIIS
   @DF-RHF iter   5:  -262.63995105529926   -8.96001e-05   7.55574e-06 DIIS
   @DF-RHF iter   6:  -262.63995760574494   -6.55045e-06   2.45271e-06 DIIS
   @DF-RHF iter   7:  -262.63995855816705   -9.52422e-07   6.40138e-07 DIIS
   @DF-RHF iter   8:  -262.63995863205827   -7.38912e-08   9.91720e-08 DIIS
   @DF-RHF iter   9:  -262.63995863404466   -1.98639e-09   1.88273e-08 DIIS
   @DF-RHF iter  10:  -262.63995863411515   -7.04858e-11   3.23062e-09 DIIS
   @DF-RHF iter  11:  -262.63995863411731   -2.16005e-12   8.26415e-10 DIIS
   @DF-RHF iter  12:  -262.63995863411765   -3.41061e-13   4.26582e-10 DIIS
   @DF-RHF iter  13:  -262.63995863411810   -4.54747e-13   7.42810e-11 DIIS
  Energy and wave function converged.


  ==> Post-Iterations <==

    Orbital Energies [Eh]
    ---------------------

    Doubly Occupied:

       1A    -15.598072     2A    -15.598054     3A    -11.274235
       4A    -11.274189     5A    -11.272973     6A    -11.272962
       7A     -1.313347     8A     -1.224175     9A     -1.076803
      10A     -0.922663    11A     -0.919282    12A     -0.760637
      13A     -0.738403    14A     -0.706214    15A     -0.647688
      16A     -0.580712    17A     -0.574369    18A     -0.497112
      19A     -0.434288    20A     -0.415855    21A     -0.359924

    Virtual:

      22A      0.021701    23A      0.032741    24A      0.038351
      25A      0.039754    26A      0.043033    27A      0.050983
      28A      0.058124    29A      0.066777    30A      0.067765
      31A      0.079845    32A      0.085251    33A      0.099148
      34A      0.099456    35A      0.105229    36A      0.108220
      37A      0.109688    38A      0.114252    39A      0.115414
      40A      0.121627    41A      0.122575    42A      0.125048
      43A      0.126718    44A      0.129892    45A      0.131489
      46A      0.132874    47A      0.143054    48A      0.150576
      49A      0.154895    50A      0.158875    51A      0.159435
      52A      0.161813    53A      0.165536    54A      0.169603
      55A      0.179815    56A      0.181962    57A      0.188271
      58A      0.198494    59A      0.203943    60A      0.205322
      61A      0.206890    62A      0.213727    63A      0.225148
      64A      0.234202    65A      0.243883    66A      0.250549
      67A      0.255294    68A      0.266080    69A      0.272748
      70A      0.280786    71A      0.288072    72A      0.294277
      73A      0.295691    74A      0.302949    75A      0.316094
      76A      0.320417    77A      0.327320    78A      0.330542
      79A      0.333029    80A      0.348726    81A      0.357688
      82A      0.358393    83A      0.366135    84A      0.381594
      85A      0.385672    86A      0.387046    87A      0.399291
      88A      0.402550    89A      0.410510    90A      0.423239
      91A      0.425298    92A      0.428514    93A      0.433962
      94A      0.438505    95A      0.442273    96A      0.453786
      97A      0.461128    98A      0.462759    99A      0.473878
     100A      0.476841   101A      0.480488   102A      0.492186
     103A      0.505012   104A      0.508362   105A      0.516188
     106A      0.524072   107A      0.525348   108A      0.531899
     109A      0.536361   110A      0.554644   111A      0.559426
     112A      0.561657   113A      0.565747   114A      0.570905
     115A      0.582645   116A      0.587764   117A      0.593595
     118A      0.594482   119A      0.596534   120A      0.609115
     121A      0.616492   122A      0.620550   123A      0.636452
     124A      0.644641   125A      0.645461   126A      0.649481
     127A      0.651582   128A      0.679137   129A      0.684078
     130A      0.685570   131A      0.687894   132A      0.690042
     133A      0.693328   134A      0.698109   135A      0.707520
     136A      0.721395   137A      0.731206   138A      0.747659
     139A      0.749869   140A      0.754874   141A      0.767086
     142A      0.775782   143A      0.781625   144A      0.793912
     145A      0.800013   146A      0.802959   147A      0.812421
     148A      0.813636   149A      0.820333   150A      0.825049
     151A      0.831194   152A      0.847879   153A      0.848596
     154A      0.850200   155A      0.872104   156A      0.880853
     157A      0.886676   158A      0.888270   159A      0.894688
     160A      0.906211   161A      0.929231   162A      0.929886
     163A      0.940534   164A      0.948229   165A      0.950673
     166A      0.970890   167A      0.976984   168A      0.987669
     169A      0.998344   170A      1.001084   171A      1.013034
     172A      1.033464   173A      1.035286   174A      1.047245
     175A      1.051324   176A      1.077176   177A      1.089452
     178A      1.090354   179A      1.100916   180A      1.122917
     181A      1.124146   182A      1.132120   183A      1.134832
     184A      1.141200   185A      1.159065   186A      1.168745
     187A      1.171556   188A      1.173662   189A      1.193152
     190A      1.193738   191A      1.200714   192A      1.222842
     193A      1.235621   194A      1.238925   195A      1.251102
     196A      1.307690   197A      1.310775   198A      1.318378
     199A      1.327160   200A      1.329656   201A      1.331516
     202A      1.347535   203A      1.389921   204A      1.414341
     205A      1.448517   206A      1.452134   207A      1.455539
     208A      1.479283   209A      1.486544   210A      1.487562
     211A      1.488933   212A      1.500809   213A      1.504229
     214A      1.519009   215A      1.572782   216A      1.574609
     217A      1.588408   218A      1.636292   219A      1.640832
     220A      1.650300   221A      1.660422   222A      1.678634
     223A      1.698245   224A      1.717022   225A      1.746612
     226A      1.755280   227A      1.785155   228A      1.815741
     229A      1.893336   230A      1.916472   231A      1.965079
     232A      1.988061   233A      2.031273   234A      2.070374
     235A      2.091577   236A      2.101374   237A      2.102884
     238A      2.119594   239A      2.143631   240A      2.156808
     241A      2.159566   242A      2.163540   243A      2.190493
     244A      2.194226   245A      2.195069   246A      2.200625
     247A      2.202437   248A      2.227676   249A      2.235519
     250A      2.241825   251A      2.249804   252A      2.310198
     253A      2.313376   254A      2.320789   255A      2.356510
     256A      2.387881   257A      2.419584   258A      2.431581
     259A      2.435618   260A      2.438441   261A      2.439045
     262A      2.472845   263A      2.488919   264A      2.498680
     265A      2.520020   266A      2.522399   267A      2.526020
     268A      2.546723   269A      2.569215   270A      2.585067
     271A      2.593264   272A      2.606395   273A      2.626501
     274A      2.665269   275A      2.675445   276A      2.687180
     277A      2.714932   278A      2.718128   279A      2.719224
     280A      2.726719   281A      2.768035   282A      2.844022
     283A      2.865813   284A      2.906453   285A      2.939276
     286A      2.947644   287A      2.955880   288A      2.973686
     289A      3.002071   290A      3.018360   291A      3.032608
     292A      3.058414   293A      3.067058   294A      3.094663
     295A      3.115854   296A      3.222115   297A      3.245852
     298A      3.256110   299A      3.285243   300A      3.289967
     301A      3.322119   302A      3.338252   303A      3.341421
     304A      3.348743   305A      3.351696   306A      3.366491
     307A      3.412836   308A      3.414208   309A      3.471346
     310A      3.502117   311A      3.515025   312A      3.521419
     313A      3.591022   314A      3.604644   315A      3.606464
     316A      3.627919   317A      3.700609   318A      3.819548
     319A      3.830758   320A      3.941068   321A      3.969411
     322A      3.977459   323A      4.012953   324A      4.195227
     325A      4.244157   326A      4.253927   327A      4.443092
     328A      4.547394   329A      4.579404   330A      4.867712
     331A      4.976489   332A      5.058403   333A      5.262073
     334A      5.317020   335A      5.630966   336A      5.691504
     337A      5.827432   338A      5.952795   339A      6.284325
     340A      6.307020   341A      6.453951   342A      6.631330
     343A     18.125843   344A     18.208315   345A     19.018889
     346A     19.343884   347A     25.287176   348A     25.374847

    Final Occupation by Irrep:
              A
    DOCC [    21 ]

  @DF-RHF Final Energy:  -262.63995863411810

   => Energetics <=

    Nuclear Repulsion Energy =            212.5517311104853491
    One-Electron Energy =                -775.4594647363102240
    Two-Electron Energy =                 300.2677749917068013
    Total Energy =                       -262.6399586341181021

Computation Completed


Properties will be evaluated at   0.000000,   0.000000,   0.000000 [a0]

Properties computed using the SCF density matrix

  Nuclear Dipole Moment: [e a0]
     X:    55.0814      Y:    41.1737      Z:    17.9034

  Electronic Dipole Moment: [e a0]
     X:   -55.0815      Y:   -41.1737      Z:   -17.9033

  Dipole Moment: [e a0]
     X:    -0.0000      Y:    -0.0000      Z:     0.0000     Total:     0.0000

  Dipole Moment: [D]
     X:    -0.0000      Y:    -0.0000      Z:     0.0000     Total:     0.0001


*** tstop() called on atl1-1-01-013-15-r.pace.gatech.edu at Mon Nov 29 16:11:11 2021
Module time:
	user time   =      20.88 seconds =       0.35 minutes
	system time =       0.55 seconds =       0.01 minutes
	total time  =         11 seconds =       0.18 minutes
Total time:
	user time   =      54.85 seconds =       0.91 minutes
	system time =       1.67 seconds =       0.03 minutes
	total time  =         30 seconds =       0.50 minutes

  //>>>>>>>>>>>>>>>>>>>>>>>>>>>>>>>>>>>//
  //            Monomer B HF           //
  //<<<<<<<<<<<<<<<<<<<<<<<<<<<<<<<<<<<//


*** tstart() called on atl1-1-01-013-15-r.pace.gatech.edu
*** at Mon Nov 29 16:11:11 2021

   => Loading Basis Set <=

    Name: AUG-CC-PVDZ
    Role: ORBITAL
    Keyword: BASIS
    atoms 1-2, 11-12  entry N          line   218 file /storage/home/hhive1/csargent30/data/miniconda3/envs/psi4/share/psi4/basis/aug-cc-pvdz.gbs
    atoms 3-6, 13-16  entry H          line    40 file /storage/home/hhive1/csargent30/data/miniconda3/envs/psi4/share/psi4/basis/aug-cc-pvdz.gbs
    atoms 7-10, 17-20 entry C          line   182 file /storage/home/hhive1/csargent30/data/miniconda3/envs/psi4/share/psi4/basis/aug-cc-pvdz.gbs


         ---------------------------------------------------------
                                   SCF
               by Justin Turney, Rob Parrish, Andy Simmonett
                          and Daniel G. A. Smith
                              RHF Reference
                        2 Threads,   6675 MiB Core
         ---------------------------------------------------------

  ==> Geometry <==

    Molecular point group: c1
    Full point group: C1

    Geometry (in Bohr), charge = 0, multiplicity = 1:

       Center              X                  Y                   Z               Mass
    ------------   -----------------  -----------------  -----------------  -----------------
      Gh(N)          -1.330847580000     0.980326580000     0.426270370000    14.003074004430
      Gh(N)           3.953773330000     0.980326580000     0.426270370000    14.003074004430
      Gh(H)           3.567136740000     4.352185690000    -0.942309730000     1.007825032230
      Gh(H)          -0.944210980000     4.352185690000    -0.942309730000     1.007825032230
      Gh(H)          -0.944210980000    -2.391532530000     1.794850470000     1.007825032230
      Gh(H)           3.567136740000    -2.391532530000     1.794850470000     1.007825032230
      Gh(C)           2.622925760000     2.940979740000    -0.426270370000    12.000000000000
      Gh(C)           0.000000000000     2.940979740000    -0.426270370000    12.000000000000
      Gh(C)           0.000000000000    -0.980326580000     1.278811120000    12.000000000000
      Gh(C)           2.622925760000    -0.980326580000     1.278811120000    12.000000000000
         N          -18.953299590000   -10.074949200000     7.480806970000    14.003074004430
         N          -13.668678680000   -10.074949200000     7.480806970000    14.003074004430
         H          -14.055315270000    -6.703090090000     6.112226870000     1.007825032230
         H          -18.566662990000    -6.703090090000     6.112226870000     1.007825032230
         H          -18.566662990000   -13.446808310000     8.849387070000     1.007825032230
         H          -14.055315270000   -13.446808310000     8.849387070000     1.007825032230
         C          -14.999526250000    -8.114296040000     6.628266220000    12.000000000000
         C          -17.622452010000    -8.114296040000     6.628266220000    12.000000000000
         C          -17.622452010000   -12.035602360000     8.333347720000    12.000000000000
         C          -14.999526250000   -12.035602360000     8.333347720000    12.000000000000

  Running in c1 symmetry.

  Rotational constants: A =      0.09195  B =      0.00173  C =      0.00171 [cm^-1]
  Rotational constants: A =   2756.70120  B =     52.00824  C =     51.29690 [MHz]
  Nuclear repulsion =  212.551731042300531

  Charge       = 0
  Multiplicity = 1
  Electrons    = 42
  Nalpha       = 21
  Nbeta        = 21

  ==> Algorithm <==

  SCF Algorithm Type is DF.
  DIIS enabled.
  MOM disabled.
  Fractional occupation disabled.
  Guess Type is SAD.
  Energy threshold   = 1.00e-10
  Density threshold  = 1.00e-10
  Integral threshold = 1.00e-12

  ==> Primary Basis <==

  Basis Set: AUG-CC-PVDZ
    Blend: AUG-CC-PVDZ
    Number of shells: 148
    Number of basis functions: 348
    Number of Cartesian functions: 372
    Spherical Harmonics?: true
    Max angular momentum: 2

   => Loading Basis Set <=

    Name: (AUG-CC-PVDZ AUX)
    Role: JKFIT
    Keyword: DF_BASIS_SCF
    atoms 1-2, 11-12  entry N          line   212 file /storage/home/hhive1/csargent30/data/miniconda3/envs/psi4/share/psi4/basis/aug-cc-pvdz-jkfit.gbs
    atoms 3-6, 13-16  entry H          line    70 file /storage/home/hhive1/csargent30/data/miniconda3/envs/psi4/share/psi4/basis/aug-cc-pvdz-jkfit.gbs
    atoms 7-10, 17-20 entry C          line   154 file /storage/home/hhive1/csargent30/data/miniconda3/envs/psi4/share/psi4/basis/aug-cc-pvdz-jkfit.gbs

  ==> Integral Setup <==

  ==> DiskDFJK: Density-Fitted J/K Matrices <==

    J tasked:                  Yes
    K tasked:                  Yes
    wK tasked:                  No
    OpenMP threads:              2
    Integrals threads:           2
    Memory [MiB]:             5006
    Algorithm:                Core
    Integral Cache:           LOAD
    Schwarz Cutoff:          1E-12
    Fitting Condition:       1E-10

   => Auxiliary Basis Set <=

  Basis Set: (AUG-CC-PVDZ AUX)
    Blend: AUG-CC-PVDZ-JKFIT
    Number of shells: 432
    Number of basis functions: 1288
    Number of Cartesian functions: 1492
    Spherical Harmonics?: true
    Max angular momentum: 3

  Minimum eigenvalue in the overlap matrix is 8.8859020109E-06.
  Reciprocal condition number of the overlap matrix is 6.9297670900E-07.
    Using symmetric orthogonalization.

  ==> Pre-Iterations <==

  SCF Guess: Superposition of Atomic Densities via on-the-fly atomic UHF (no occupation information).

   -------------------------
    Irrep   Nso     Nmo
   -------------------------
     A        348     348
   -------------------------
    Total     348     348
   -------------------------

  ==> Iterations <==

                           Total Energy        Delta E     RMS |[F,P]|

   @DF-RHF iter SAD:  -262.32523128118316   -2.62325e+02   0.00000e+00
   @DF-RHF iter   1:  -262.53942085726419   -2.14190e-01   1.11987e-03 DIIS
   @DF-RHF iter   2:  -262.62880206541291   -8.93812e-02   4.10668e-04 DIIS
   @DF-RHF iter   3:  -262.63863672977271   -9.83466e-03   1.28246e-04 DIIS
   @DF-RHF iter   4:  -262.63986145272287   -1.22472e-03   3.77601e-05 DIIS
   @DF-RHF iter   5:  -262.63995105278127   -8.96001e-05   7.55574e-06 DIIS
   @DF-RHF iter   6:  -262.63995760322643   -6.55045e-06   2.45271e-06 DIIS
   @DF-RHF iter   7:  -262.63995855565042   -9.52424e-07   6.40138e-07 DIIS
   @DF-RHF iter   8:  -262.63995862954147   -7.38910e-08   9.91720e-08 DIIS
   @DF-RHF iter   9:  -262.63995863152655   -1.98509e-09   1.88273e-08 DIIS
   @DF-RHF iter  10:  -262.63995863159806   -7.15090e-11   3.23077e-09 DIIS
   @DF-RHF iter  11:  -262.63995863160051   -2.44427e-12   8.27431e-10 DIIS
   @DF-RHF iter  12:  -262.63995863160090   -3.97904e-13   4.26658e-10 DIIS
   @DF-RHF iter  13:  -262.63995863160022    6.82121e-13   7.42723e-11 DIIS
  Energy and wave function converged.


  ==> Post-Iterations <==

    Orbital Energies [Eh]
    ---------------------

    Doubly Occupied:

       1A    -15.598072     2A    -15.598054     3A    -11.274235
       4A    -11.274189     5A    -11.272973     6A    -11.272962
       7A     -1.313347     8A     -1.224175     9A     -1.076803
      10A     -0.922663    11A     -0.919282    12A     -0.760637
      13A     -0.738403    14A     -0.706214    15A     -0.647688
      16A     -0.580712    17A     -0.574369    18A     -0.497112
      19A     -0.434288    20A     -0.415855    21A     -0.359924

    Virtual:

      22A      0.021701    23A      0.032741    24A      0.038351
      25A      0.039754    26A      0.043033    27A      0.050983
      28A      0.058124    29A      0.066777    30A      0.067765
      31A      0.079845    32A      0.085251    33A      0.099148
      34A      0.099456    35A      0.105229    36A      0.108220
      37A      0.109688    38A      0.114252    39A      0.115414
      40A      0.121627    41A      0.122575    42A      0.125048
      43A      0.126718    44A      0.129892    45A      0.131489
      46A      0.132874    47A      0.143054    48A      0.150576
      49A      0.154895    50A      0.158875    51A      0.159435
      52A      0.161813    53A      0.165536    54A      0.169603
      55A      0.179815    56A      0.181962    57A      0.188271
      58A      0.198494    59A      0.203943    60A      0.205322
      61A      0.206890    62A      0.213727    63A      0.225148
      64A      0.234202    65A      0.243883    66A      0.250549
      67A      0.255294    68A      0.266080    69A      0.272748
      70A      0.280786    71A      0.288072    72A      0.294277
      73A      0.295691    74A      0.302949    75A      0.316094
      76A      0.320417    77A      0.327320    78A      0.330542
      79A      0.333029    80A      0.348726    81A      0.357688
      82A      0.358393    83A      0.366135    84A      0.381594
      85A      0.385672    86A      0.387046    87A      0.399291
      88A      0.402550    89A      0.410510    90A      0.423239
      91A      0.425298    92A      0.428515    93A      0.433962
      94A      0.438505    95A      0.442273    96A      0.453786
      97A      0.461128    98A      0.462759    99A      0.473879
     100A      0.476841   101A      0.480488   102A      0.492186
     103A      0.505012   104A      0.508362   105A      0.516188
     106A      0.524072   107A      0.525348   108A      0.531899
     109A      0.536361   110A      0.554644   111A      0.559426
     112A      0.561657   113A      0.565747   114A      0.570905
     115A      0.582645   116A      0.587764   117A      0.593595
     118A      0.594482   119A      0.596534   120A      0.609115
     121A      0.616492   122A      0.620550   123A      0.636452
     124A      0.644642   125A      0.645461   126A      0.649481
     127A      0.651582   128A      0.679137   129A      0.684078
     130A      0.685570   131A      0.687894   132A      0.690042
     133A      0.693328   134A      0.698109   135A      0.707521
     136A      0.721395   137A      0.731206   138A      0.747659
     139A      0.749869   140A      0.754874   141A      0.767086
     142A      0.775782   143A      0.781625   144A      0.793912
     145A      0.800013   146A      0.802959   147A      0.812421
     148A      0.813636   149A      0.820333   150A      0.825049
     151A      0.831194   152A      0.847879   153A      0.848596
     154A      0.850200   155A      0.872104   156A      0.880853
     157A      0.886676   158A      0.888270   159A      0.894688
     160A      0.906211   161A      0.929231   162A      0.929886
     163A      0.940534   164A      0.948229   165A      0.950673
     166A      0.970890   167A      0.976984   168A      0.987669
     169A      0.998344   170A      1.001085   171A      1.013034
     172A      1.033464   173A      1.035286   174A      1.047245
     175A      1.051324   176A      1.077176   177A      1.089452
     178A      1.090354   179A      1.100916   180A      1.122917
     181A      1.124146   182A      1.132120   183A      1.134832
     184A      1.141200   185A      1.159066   186A      1.168745
     187A      1.171556   188A      1.173662   189A      1.193152
     190A      1.193738   191A      1.200714   192A      1.222842
     193A      1.235621   194A      1.238925   195A      1.251102
     196A      1.307690   197A      1.310775   198A      1.318378
     199A      1.327160   200A      1.329656   201A      1.331516
     202A      1.347535   203A      1.389921   204A      1.414341
     205A      1.448517   206A      1.452134   207A      1.455539
     208A      1.479283   209A      1.486544   210A      1.487562
     211A      1.488933   212A      1.500809   213A      1.504229
     214A      1.519009   215A      1.572782   216A      1.574609
     217A      1.588408   218A      1.636292   219A      1.640832
     220A      1.650300   221A      1.660422   222A      1.678634
     223A      1.698245   224A      1.717022   225A      1.746612
     226A      1.755280   227A      1.785155   228A      1.815741
     229A      1.893336   230A      1.916472   231A      1.965079
     232A      1.988061   233A      2.031273   234A      2.070374
     235A      2.091577   236A      2.101374   237A      2.102884
     238A      2.119594   239A      2.143631   240A      2.156808
     241A      2.159566   242A      2.163540   243A      2.190493
     244A      2.194226   245A      2.195069   246A      2.200625
     247A      2.202437   248A      2.227676   249A      2.235519
     250A      2.241825   251A      2.249804   252A      2.310198
     253A      2.313376   254A      2.320789   255A      2.356510
     256A      2.387881   257A      2.419584   258A      2.431581
     259A      2.435618   260A      2.438441   261A      2.439045
     262A      2.472845   263A      2.488919   264A      2.498680
     265A      2.520020   266A      2.522399   267A      2.526020
     268A      2.546723   269A      2.569215   270A      2.585067
     271A      2.593264   272A      2.606395   273A      2.626501
     274A      2.665269   275A      2.675445   276A      2.687180
     277A      2.714932   278A      2.718128   279A      2.719224
     280A      2.726719   281A      2.768035   282A      2.844022
     283A      2.865813   284A      2.906453   285A      2.939276
     286A      2.947644   287A      2.955880   288A      2.973686
     289A      3.002071   290A      3.018360   291A      3.032608
     292A      3.058414   293A      3.067058   294A      3.094663
     295A      3.115854   296A      3.222115   297A      3.245852
     298A      3.256110   299A      3.285243   300A      3.289967
     301A      3.322119   302A      3.338252   303A      3.341421
     304A      3.348743   305A      3.351696   306A      3.366491
     307A      3.412836   308A      3.414208   309A      3.471346
     310A      3.502117   311A      3.515025   312A      3.521419
     313A      3.591022   314A      3.604644   315A      3.606464
     316A      3.627919   317A      3.700609   318A      3.819548
     319A      3.830758   320A      3.941068   321A      3.969411
     322A      3.977459   323A      4.012953   324A      4.195227
     325A      4.244157   326A      4.253927   327A      4.443092
     328A      4.547394   329A      4.579404   330A      4.867712
     331A      4.976489   332A      5.058403   333A      5.262073
     334A      5.317020   335A      5.630966   336A      5.691504
     337A      5.827432   338A      5.952795   339A      6.284325
     340A      6.307020   341A      6.453951   342A      6.631330
     343A     18.125843   344A     18.208315   345A     19.018889
     346A     19.343884   347A     25.287176   348A     25.374847

    Final Occupation by Irrep:
              A
    DOCC [    21 ]

  @DF-RHF Final Energy:  -262.63995863160022

   => Energetics <=

    Nuclear Repulsion Energy =            212.5517310423005313
    One-Electron Energy =                -775.4594645990586059
    Two-Electron Energy =                 300.2677749251578803
    Total Energy =                       -262.6399586316002228

Computation Completed


Properties will be evaluated at   0.000000,   0.000000,   0.000000 [a0]

Properties computed using the SCF density matrix

  Nuclear Dipole Moment: [e a0]
     X:  -685.0615      Y:  -423.1479      Z:   314.1939

  Electronic Dipole Moment: [e a0]
     X:   685.0616      Y:   423.1479      Z:  -314.1939

  Dipole Moment: [e a0]
     X:     0.0000      Y:     0.0000      Z:    -0.0000     Total:     0.0000

  Dipole Moment: [D]
     X:     0.0000      Y:     0.0000      Z:    -0.0000     Total:     0.0001


*** tstop() called on atl1-1-01-013-15-r.pace.gatech.edu at Mon Nov 29 16:11:22 2021
Module time:
	user time   =      19.79 seconds =       0.33 minutes
	system time =       0.53 seconds =       0.01 minutes
	total time  =         11 seconds =       0.18 minutes
Total time:
	user time   =      74.65 seconds =       1.24 minutes
	system time =       2.20 seconds =       0.04 minutes
	total time  =         41 seconds =       0.68 minutes
  Constructing Basis Sets for SAPT...

   => Loading Basis Set <=

    Name: (AUG-CC-PVDZ AUX)
    Role: RIFIT
    Keyword: DF_BASIS_SAPT
    atoms 1-2, 11-12  entry N          line   158 file /storage/home/hhive1/csargent30/data/miniconda3/envs/psi4/share/psi4/basis/aug-cc-pvdz-ri.gbs
    atoms 3-6, 13-16  entry H          line    30 file /storage/home/hhive1/csargent30/data/miniconda3/envs/psi4/share/psi4/basis/aug-cc-pvdz-ri.gbs
    atoms 7-10, 17-20 entry C          line   112 file /storage/home/hhive1/csargent30/data/miniconda3/envs/psi4/share/psi4/basis/aug-cc-pvdz-ri.gbs


  //>>>>>>>>>>>>>>>>>>>>>>>>>>>>>>>>>>>//
  //               SAPT0               //
  //<<<<<<<<<<<<<<<<<<<<<<<<<<<<<<<<<<<//


*** tstart() called on atl1-1-01-013-15-r.pace.gatech.edu
*** at Mon Nov 29 16:11:22 2021

        SAPT0
    Ed Hohenstein
     6 June 2009

      Orbital Information
  --------------------------
    NSO        =       348
    NMO        =       348
    NRI        =      1048
    NOCC A     =        21
    NOCC B     =        21
    FOCC A     =         6
    FOCC B     =         6
    NVIR A     =       327
    NVIR B     =       327

    Elst10,r            =    -0.000077952078 [Eh]
    Exch10              =     0.000000004958 [Eh]
    Exch10 (S^2)        =     0.000000004958 [Eh]

    Iter     Energy [mEh]          dE [mEh]         Residual      Time [s]
       1      -0.00023615       0.000236153       0.168628168             1
       2      -0.00021833      -0.000017818       0.041160967             1
       3      -0.00024684       0.000028506       0.013873009             2
       4      -0.00024768       0.000000840       0.008342369             2
       5      -0.00024658      -0.000001103       0.003686065             2
       6      -0.00024639      -0.000000183       0.001283193             3
       7      -0.00024652       0.000000126       0.000495875             3
       8      -0.00024657       0.000000048       0.000121677             3
       9      -0.00024655      -0.000000015       0.000058121             4
      10      -0.00024655      -0.000000006       0.000021480             4
      11      -0.00024655       0.000000004       0.000009231             4
      12      -0.00024655       0.000000000       0.000003811             5
      13      -0.00024655      -0.000000000       0.000001201             5
      14      -0.00024655       0.000000000       0.000000350             6

    CHF Iterations converged


    Iter     Energy [mEh]          dE [mEh]         Residual      Time [s]
       1      -0.00023615       0.000236153       0.168628168             0
       2      -0.00021833      -0.000017818       0.041160967             0
       3      -0.00024684       0.000028506       0.013873008             1
       4      -0.00024768       0.000000840       0.008342369             1
       5      -0.00024658      -0.000001103       0.003686065             1
       6      -0.00024639      -0.000000183       0.001283193             2
       7      -0.00024652       0.000000126       0.000495875             2
       8      -0.00024657       0.000000048       0.000121677             2
       9      -0.00024655      -0.000000015       0.000058121             3
      10      -0.00024655      -0.000000006       0.000021480             3
      11      -0.00024655       0.000000004       0.000009231             4
      12      -0.00024655       0.000000000       0.000003811             4
      13      -0.00024655      -0.000000000       0.000001201             4
      14      -0.00024655       0.000000000       0.000000350             5

    CHF Iterations converged

    Ind20,r (A<-B)      =    -0.000000246550 [Eh]
    Ind20,r (B<-A)      =    -0.000000246550 [Eh]
    Ind20,r             =    -0.000000493100 [Eh]
    Exch-Ind20,r (A<-B) =     0.000000006442 [Eh]
    Exch-Ind20,r (B<-A) =     0.000000006442 [Eh]
    Exch-Ind20,r        =     0.000000012884 [Eh]
    Disp20              =    -0.000021331020 [Eh]
    Disp20 (SS)         =    -0.000010665510 [Eh]
    Disp20 (OS)         =    -0.000010665510 [Eh]
    Exch-Disp20         =     0.000000001070 [Eh]
    Exch-Disp20 (SS)    =     0.000000000904 [Eh]
    Exch-Disp20 (OS)    =     0.000000000167 [Eh]

    SAPT Results
  --------------------------------------------------------------------------------------------------------
    Electrostatics                 -0.07795208 [mEh]      -0.04891567 [kcal/mol]      -0.20466315 [kJ/mol]
      Elst10,r                     -0.07795208 [mEh]      -0.04891567 [kcal/mol]      -0.20466315 [kJ/mol]

    Exchange                        0.00000496 [mEh]       0.00000311 [kcal/mol]       0.00001302 [kJ/mol]
      Exch10                        0.00000496 [mEh]       0.00000311 [kcal/mol]       0.00001302 [kJ/mol]
      Exch10(S^2)                   0.00000496 [mEh]       0.00000311 [kcal/mol]       0.00001302 [kJ/mol]

    Induction                      -0.00051064 [mEh]      -0.00032043 [kcal/mol]      -0.00134068 [kJ/mol]
      Ind20,r                      -0.00049310 [mEh]      -0.00030943 [kcal/mol]      -0.00129463 [kJ/mol]
      Exch-Ind20,r                  0.00001288 [mEh]       0.00000808 [kcal/mol]       0.00003383 [kJ/mol]
      delta HF,r (2)               -0.00003042 [mEh]      -0.00001909 [kcal/mol]      -0.00007987 [kJ/mol]

    Dispersion                     -0.02132995 [mEh]      -0.01338475 [kcal/mol]      -0.05600178 [kJ/mol]
      Disp20                       -0.02133102 [mEh]      -0.01338542 [kcal/mol]      -0.05600459 [kJ/mol]
      Exch-Disp20                   0.00000107 [mEh]       0.00000067 [kcal/mol]       0.00000281 [kJ/mol]
      Disp20 (SS)                  -0.01066551 [mEh]      -0.00669271 [kcal/mol]      -0.02800229 [kJ/mol]
      Disp20 (OS)                  -0.01066551 [mEh]      -0.00669271 [kcal/mol]      -0.02800229 [kJ/mol]
      Exch-Disp20 (SS)              0.00000090 [mEh]       0.00000057 [kcal/mol]       0.00000237 [kJ/mol]
      Exch-Disp20 (OS)              0.00000017 [mEh]       0.00000010 [kcal/mol]       0.00000044 [kJ/mol]

  Total HF                         -0.07845776 [mEh]      -0.04923299 [kcal/mol]      -0.20599081 [kJ/mol]
  Total SAPT0                      -0.09978771 [mEh]      -0.06261773 [kcal/mol]      -0.26199259 [kJ/mol]

  Special recipe for scaled SAPT0 (see Manual):
    Electrostatics sSAPT0          -0.07795208 [mEh]      -0.04891567 [kcal/mol]      -0.20466315 [kJ/mol]
    Exchange sSAPT0                 0.00000496 [mEh]       0.00000311 [kcal/mol]       0.00001302 [kJ/mol]
    Induction sSAPT0               -0.00051064 [mEh]      -0.00032043 [kcal/mol]      -0.00134068 [kJ/mol]
    Dispersion sSAPT0              -0.02132995 [mEh]      -0.01338475 [kcal/mol]      -0.05600178 [kJ/mol]
  Total sSAPT0                     -0.09978771 [mEh]      -0.06261773 [kcal/mol]      -0.26199259 [kJ/mol]
  --------------------------------------------------------------------------------------------------------

*** tstop() called on atl1-1-01-013-15-r.pace.gatech.edu at Mon Nov 29 16:11:50 2021
Module time:
	user time   =      41.81 seconds =       0.70 minutes
	system time =      10.28 seconds =       0.17 minutes
	total time  =         28 seconds =       0.47 minutes
Total time:
	user time   =     116.71 seconds =       1.95 minutes
	system time =      12.48 seconds =       0.21 minutes
	total time  =         69 seconds =       1.15 minutes


Warning! sapt0 does not have an associated derived wavefunction.The returned wavefunction is the dimer SCF wavefunction.


    Psi4 stopped on: Monday, 29 November 2021 04:11PM
    Psi4 wall time for execution: 0:01:08.71

*** Psi4 exiting successfully. Buy a developer a beer!
