
    -----------------------------------------------------------------------
          Psi4: An Open-Source Ab Initio Electronic Structure Package
                               Psi4 1.4.1 release

                         Git: Rev {HEAD} cd00f19


    D. G. A. Smith, L. A. Burns, A. C. Simmonett, R. M. Parrish,
    M. C. Schieber, R. Galvelis, P. Kraus, H. Kruse, R. Di Remigio,
    A. Alenaizan, A. M. James, S. Lehtola, J. P. Misiewicz, M. Scheurer,
    R. A. Shaw, J. B. Schriber, Y. Xie, Z. L. Glick, D. A. Sirianni,
    J. S. O'Brien, J. M. Waldrop, A. Kumar, E. G. Hohenstein,
    B. P. Pritchard, B. R. Brooks, H. F. Schaefer III, A. Yu. Sokolov,
    K. Patkowski, A. E. DePrince III, U. Bozkaya, R. A. King,
    F. A. Evangelista, J. M. Turney, T. D. Crawford, C. D. Sherrill,
    J. Chem. Phys. 152(18) 184108 (2020). https://doi.org/10.1063/5.0006002

                            Additional Code Authors
    E. T. Seidl, C. L. Janssen, E. F. Valeev, M. L. Leininger,
    J. F. Gonthier, R. M. Richard, H. R. McAlexander, M. Saitow, X. Wang,
    P. Verma, and M. H. Lechner

             Previous Authors, Complete List of Code Contributors,
                       and Citations for Specific Modules
    https://github.com/psi4/psi4/blob/master/codemeta.json
    https://github.com/psi4/psi4/graphs/contributors
    http://psicode.org/psi4manual/master/introduction.html#citing-psifour

    -----------------------------------------------------------------------


    Psi4 started on: Monday, 29 November 2021 04:11PM

    Process ID: 405178
    Host:       atl1-1-01-015-26-r.pace.gatech.edu
    PSIDATADIR: /storage/home/hhive1/csargent30/data/miniconda3/envs/psi4/share/psi4
    Memory:     500.0 MiB
    Threads:    2

  ==> Input File <==

--------------------------------------------------------------------------
# PSI4 file produced by CrystaLattE

# Generated from:               pyrazine.xyz
# Psithon input for N-mer:      2mer-0+108
# Number of atoms per monomer:  [10, 10]
# Number of replicas:           8
# COM priority:                 5.199550820793e-05
# Minimum COM separations:      14.178
# Separation priority:          8.172343424130e-05
# Minimum monomer separations:  12.194
# Cutoff priority:              3.546463366358e-06
# Nuclear repulsion energy:     490.53392962399755

memory 7 GB

molecule Dimer_0_108 {
  N           -1.33084758       0.98032658       0.42627037
  N            3.95377333       0.98032658       0.42627037
  H            3.56713674       4.35218569      -0.94230973
  H           -0.94421098       4.35218569      -0.94230973
  H           -0.94421098      -2.39153253       1.79485047
  H            3.56713674      -2.39153253       1.79485047
  C            2.62292576       2.94097974      -0.42627037
  C            0.00000000       2.94097974      -0.42627037
  C            0.00000000      -0.98032658       1.27881112
  C            2.62292576      -0.98032658       1.27881112
--
  N          -10.14207358      -4.54731131     -24.26460772
  N           -4.85745267      -4.54731131     -24.26460772
  H           -9.75543698      -7.91917042     -25.63318782
  H           -9.75543698      -1.17545220     -22.89602762
  H           -5.24408927      -7.91917042     -25.63318782
  H           -5.24408927      -1.17545220     -22.89602762
  C           -8.81122601      -6.50796447     -25.11714847
  C           -8.81122601      -2.58665815     -23.41206697
  C           -6.18830025      -6.50796447     -25.11714847
  C           -6.18830025      -2.58665815     -23.41206697
units = au
no_com
no_reorient
}

set {
  e_convergence 10
  d_convergence 10
  scf_type df
  mp2_type df
  cc_type df
  freeze_core true
}

energy('sapt0/aug-cc-pvdz')

--------------------------------------------------------------------------

  Memory set to   6.519 GiB by Python driver.

Scratch directory: /tmp/

Scratch directory: /tmp/

  //>>>>>>>>>>>>>>>>>>>>>>>>>>>>>>>>>>>//
  //              Dimer HF             //
  //<<<<<<<<<<<<<<<<<<<<<<<<<<<<<<<<<<<//


*** tstart() called on atl1-1-01-015-26-r.pace.gatech.edu
*** at Mon Nov 29 16:11:15 2021

   => Loading Basis Set <=

    Name: AUG-CC-PVDZ
    Role: ORBITAL
    Keyword: BASIS
    atoms 1-2, 11-12  entry N          line   218 file /storage/home/hhive1/csargent30/data/miniconda3/envs/psi4/share/psi4/basis/aug-cc-pvdz.gbs
    atoms 3-6, 13-16  entry H          line    40 file /storage/home/hhive1/csargent30/data/miniconda3/envs/psi4/share/psi4/basis/aug-cc-pvdz.gbs
    atoms 7-10, 17-20 entry C          line   182 file /storage/home/hhive1/csargent30/data/miniconda3/envs/psi4/share/psi4/basis/aug-cc-pvdz.gbs


         ---------------------------------------------------------
                                   SCF
               by Justin Turney, Rob Parrish, Andy Simmonett
                          and Daniel G. A. Smith
                              RHF Reference
                        2 Threads,   6675 MiB Core
         ---------------------------------------------------------

  ==> Geometry <==

    Molecular point group: c1
    Full point group: C1

    Geometry (in Bohr), charge = 0, multiplicity = 1:

       Center              X                  Y                   Z               Mass
    ------------   -----------------  -----------------  -----------------  -----------------
         N           -1.330847580000     0.980326580000     0.426270370000    14.003074004430
         N            3.953773330000     0.980326580000     0.426270370000    14.003074004430
         H            3.567136740000     4.352185690000    -0.942309730000     1.007825032230
         H           -0.944210980000     4.352185690000    -0.942309730000     1.007825032230
         H           -0.944210980000    -2.391532530000     1.794850470000     1.007825032230
         H            3.567136740000    -2.391532530000     1.794850470000     1.007825032230
         C            2.622925760000     2.940979740000    -0.426270370000    12.000000000000
         C            0.000000000000     2.940979740000    -0.426270370000    12.000000000000
         C            0.000000000000    -0.980326580000     1.278811120000    12.000000000000
         C            2.622925760000    -0.980326580000     1.278811120000    12.000000000000
         N          -10.142073580000    -4.547311310000   -24.264607720000    14.003074004430
         N           -4.857452670000    -4.547311310000   -24.264607720000    14.003074004430
         H           -9.755436980000    -7.919170420000   -25.633187820000     1.007825032230
         H           -9.755436980000    -1.175452200000   -22.896027620000     1.007825032230
         H           -5.244089270000    -7.919170420000   -25.633187820000     1.007825032230
         H           -5.244089270000    -1.175452200000   -22.896027620000     1.007825032230
         C           -8.811226010000    -6.507964470000   -25.117148470000    12.000000000000
         C           -8.811226010000    -2.586658150000   -23.412066970000    12.000000000000
         C           -6.188300250000    -6.507964470000   -25.117148470000    12.000000000000
         C           -6.188300250000    -2.586658150000   -23.412066970000    12.000000000000

  Running in c1 symmetry.

  Rotational constants: A =      0.05199  B =      0.00112  C =      0.00111 [cm^-1]
  Rotational constants: A =   1558.72646  B =     33.43049  C =     33.32101 [MHz]
  Nuclear repulsion =  490.533929591885169

  Charge       = 0
  Multiplicity = 1
  Electrons    = 84
  Nalpha       = 42
  Nbeta        = 42

  ==> Algorithm <==

  SCF Algorithm Type is DF.
  DIIS enabled.
  MOM disabled.
  Fractional occupation disabled.
  Guess Type is SAD.
  Energy threshold   = 1.00e-10
  Density threshold  = 1.00e-10
  Integral threshold = 1.00e-12

  ==> Primary Basis <==

  Basis Set: AUG-CC-PVDZ
    Blend: AUG-CC-PVDZ
    Number of shells: 148
    Number of basis functions: 348
    Number of Cartesian functions: 372
    Spherical Harmonics?: true
    Max angular momentum: 2

   => Loading Basis Set <=

    Name: (AUG-CC-PVDZ AUX)
    Role: JKFIT
    Keyword: DF_BASIS_SCF
    atoms 1-2, 11-12  entry N          line   212 file /storage/home/hhive1/csargent30/data/miniconda3/envs/psi4/share/psi4/basis/aug-cc-pvdz-jkfit.gbs
    atoms 3-6, 13-16  entry H          line    70 file /storage/home/hhive1/csargent30/data/miniconda3/envs/psi4/share/psi4/basis/aug-cc-pvdz-jkfit.gbs
    atoms 7-10, 17-20 entry C          line   154 file /storage/home/hhive1/csargent30/data/miniconda3/envs/psi4/share/psi4/basis/aug-cc-pvdz-jkfit.gbs

  ==> Integral Setup <==

  ==> DiskDFJK: Density-Fitted J/K Matrices <==

    J tasked:                  Yes
    K tasked:                  Yes
    wK tasked:                  No
    OpenMP threads:              2
    Integrals threads:           2
    Memory [MiB]:             5006
    Algorithm:                Core
    Integral Cache:           SAVE
    Schwarz Cutoff:          1E-12
    Fitting Condition:       1E-10

   => Auxiliary Basis Set <=

  Basis Set: (AUG-CC-PVDZ AUX)
    Blend: AUG-CC-PVDZ-JKFIT
    Number of shells: 432
    Number of basis functions: 1288
    Number of Cartesian functions: 1492
    Spherical Harmonics?: true
    Max angular momentum: 3

  Minimum eigenvalue in the overlap matrix is 9.4766039461E-06.
  Reciprocal condition number of the overlap matrix is 7.3914250656E-07.
    Using symmetric orthogonalization.

  ==> Pre-Iterations <==

  SCF Guess: Superposition of Atomic Densities via on-the-fly atomic UHF (no occupation information).

   -------------------------
    Irrep   Nso     Nmo
   -------------------------
     A        348     348
   -------------------------
    Total     348     348
   -------------------------

  ==> Iterations <==

                           Total Energy        Delta E     RMS |[F,P]|

   @DF-RHF iter SAD:  -524.65046251658009   -5.24650e+02   0.00000e+00
   @DF-RHF iter   1:  -525.07880909787423   -4.28347e-01   1.58373e-03 DIIS
   @DF-RHF iter   2:  -525.25757023636334   -1.78761e-01   5.80793e-04 DIIS
   @DF-RHF iter   3:  -525.27724078131655   -1.96705e-02   1.81375e-04 DIIS
   @DF-RHF iter   4:  -525.27969038860977   -2.44961e-03   5.34009e-05 DIIS
   @DF-RHF iter   5:  -525.27986958901511   -1.79200e-04   1.06854e-05 DIIS
   @DF-RHF iter   6:  -525.27988268943955   -1.31004e-05   3.46865e-06 DIIS
   @DF-RHF iter   7:  -525.27988459424739   -1.90481e-06   9.05401e-07 DIIS
   @DF-RHF iter   8:  -525.27988474203119   -1.47784e-07   1.41323e-07 DIIS
   @DF-RHF iter   9:  -525.27988474599374   -3.96255e-09   3.41506e-08 DIIS
   @DF-RHF iter  10:  -525.27988474613971   -1.45974e-10   1.88949e-08 DIIS
   @DF-RHF iter  11:  -525.27988474617041   -3.06954e-11   2.87784e-09 DIIS
   @DF-RHF iter  12:  -525.27988474617132   -9.09495e-13   8.77329e-10 DIIS
   @DF-RHF iter  13:  -525.27988474617166   -3.41061e-13   3.67032e-10 DIIS
   @DF-RHF iter  14:  -525.27988474617268   -1.02318e-12   7.79416e-11 DIIS
  Energy and wave function converged.


  ==> Post-Iterations <==

    Orbital Energies [Eh]
    ---------------------

    Doubly Occupied:

       1A    -15.598113     2A    -15.598088     3A    -15.597965
       4A    -15.597946     5A    -11.274280     6A    -11.274232
       7A    -11.274133     8A    -11.274088     9A    -11.273020
      10A    -11.273003    11A    -11.272869    12A    -11.272863
      13A     -1.313385    14A     -1.313239    15A     -1.224213
      16A     -1.224068    17A     -1.076843    18A     -1.076697
      19A     -0.922702    20A     -0.922557    21A     -0.919322
      22A     -0.919177    23A     -0.760676    24A     -0.760531
      25A     -0.738443    26A     -0.738297    27A     -0.706253
      28A     -0.706107    29A     -0.647728    30A     -0.647582
      31A     -0.580751    32A     -0.580606    33A     -0.574407
      34A     -0.574261    35A     -0.497150    36A     -0.497005
      37A     -0.434325    38A     -0.434179    39A     -0.415894
      40A     -0.415749    41A     -0.359963    42A     -0.359817

    Virtual:

      43A      0.034170    44A      0.034799    45A      0.040415
      46A      0.041061    47A      0.048268    48A      0.048575
      49A      0.058469    50A      0.058742    51A      0.067079
      52A      0.067228    53A      0.099379    54A      0.099528
      55A      0.100903    56A      0.101043    57A      0.114152
      58A      0.114317    59A      0.114882    60A      0.115101
      61A      0.123688    62A      0.123855    63A      0.125322
      64A      0.125438    65A      0.128605    66A      0.128748
      67A      0.132833    68A      0.133017    69A      0.157020
      70A      0.158710    71A      0.160341    72A      0.161160
      73A      0.161390    74A      0.162207    75A      0.163965
      76A      0.164513    77A      0.175154    78A      0.175297
      79A      0.186869    80A      0.187056    81A      0.203873
      82A      0.204025    83A      0.212496    84A      0.212672
      85A      0.250454    86A      0.250674    87A      0.267720
      88A      0.267864    89A      0.278006    90A      0.278190
      91A      0.287731    92A      0.287972    93A      0.293164
      94A      0.293304    95A      0.295722    96A      0.295876
      97A      0.314780    98A      0.314934    99A      0.320403
     100A      0.320586   101A      0.355362   102A      0.355535
     103A      0.357878   104A      0.358018   105A      0.364623
     106A      0.364774   107A      0.382506   108A      0.382716
     109A      0.398545   110A      0.399311   111A      0.409728
     112A      0.410140   113A      0.425396   114A      0.425552
     115A      0.433875   116A      0.434032   117A      0.436738
     118A      0.437829   119A      0.452045   120A      0.452216
     121A      0.471441   122A      0.471592   123A      0.492099
     124A      0.492243   125A      0.504802   126A      0.504981
     127A      0.514877   128A      0.515025   129A      0.524503
     130A      0.524648   131A      0.528376   132A      0.529081
     133A      0.554533   134A      0.554690   135A      0.570473
     136A      0.570668   137A      0.587497   138A      0.587642
     139A      0.591471   140A      0.591616   141A      0.593759
     142A      0.593906   143A      0.608886   144A      0.609028
     145A      0.643477   146A      0.643621   147A      0.644267
     148A      0.644435   149A      0.685095   150A      0.685243
     151A      0.687696   152A      0.687873   153A      0.689802
     154A      0.690060   155A      0.690283   156A      0.690565
     157A      0.694786   158A      0.694929   159A      0.703773
     160A      0.703963   161A      0.746508   162A      0.746662
     163A      0.754774   164A      0.754921   165A      0.766929
     166A      0.767071   167A      0.781343   168A      0.781548
     169A      0.799769   170A      0.799918   171A      0.802664
     172A      0.802829   173A      0.818981   174A      0.819127
     175A      0.831035   176A      0.831180   177A      0.847472
     178A      0.847623   179A      0.880505   180A      0.880648
     181A      0.886368   182A      0.886513   183A      0.894646
     184A      0.894794   185A      0.929227   186A      0.929378
     187A      0.939417   188A      0.939592   189A      0.949224
     190A      0.949462   191A      0.996613   192A      0.996759
     193A      0.998870   194A      0.999015   195A      1.012978
     196A      1.013124   197A      1.033331   198A      1.033480
     199A      1.051154   200A      1.051302   201A      1.089343
     202A      1.089489   203A      1.100406   204A      1.100554
     205A      1.122042   206A      1.122432   207A      1.124009
     208A      1.124151   209A      1.134267   210A      1.134534
     211A      1.158678   212A      1.158875   213A      1.173526
     214A      1.173672   215A      1.235364   216A      1.235539
     217A      1.238763   218A      1.238908   219A      1.309631
     220A      1.309787   221A      1.331110   222A      1.331255
     223A      1.414236   224A      1.414395   225A      1.451482
     226A      1.451642   227A      1.486099   228A      1.486244
     229A      1.488036   230A      1.488181   231A      1.499088
     232A      1.499400   233A      1.502774   234A      1.503001
     235A      1.518209   236A      1.518355   237A      1.572647
     238A      1.572793   239A      1.574012   240A      1.574452
     241A      1.587617   242A      1.588154   243A      1.635917
     244A      1.636116   245A      1.640464   246A      1.640610
     247A      1.648184   248A      1.648334   249A      1.676513
     250A      1.676657   251A      1.716954   252A      1.717100
     253A      1.746559   254A      1.746705   255A      1.755065
     256A      1.755212   257A      1.783627   258A      1.783979
     259A      1.815688   260A      1.815833   261A      1.893283
     262A      1.893429   263A      1.916097   264A      1.916244
     265A      1.964789   266A      1.964934   267A      1.987636
     268A      1.987782   269A      2.031159   270A      2.031312
     271A      2.091507   272A      2.091657   273A      2.100986
     274A      2.101141   275A      2.142914   276A      2.143060
     277A      2.163316   278A      2.163461   279A      2.190446
     280A      2.190592   281A      2.193249   282A      2.193427
     283A      2.200339   284A      2.200484   285A      2.202371
     286A      2.202515   287A      2.227587   288A      2.227733
     289A      2.312710   290A      2.312882   291A      2.355177
     292A      2.355348   293A      2.430918   294A      2.431063
     295A      2.438928   296A      2.439096   297A      2.519339
     298A      2.519484   299A      2.522355   300A      2.522500
     301A      2.584730   302A      2.584874   303A      2.606228
     304A      2.606373   305A      2.665185   306A      2.665330
     307A      2.675372   308A      2.675517   309A      2.686344
     310A      2.686521   311A      2.713931   312A      2.714117
     313A      2.718552   314A      2.718697   315A      2.843977
     316A      2.844122   317A      2.865723   318A      2.865868
     319A      2.939156   320A      2.939304   321A      3.001815
     322A      3.001962   323A      3.017834   324A      3.017979
     325A      3.032146   326A      3.032297   327A      3.094096
     328A      3.094243   329A      3.220230   330A      3.220487
     331A      3.255939   332A      3.256085   333A      3.284818
     334A      3.285015   335A      3.366100   336A      3.366248
     337A      3.413320   338A      3.413479   339A      3.514880
     340A      3.515026   341A      3.590614   342A      3.590761
     343A      3.627730   344A      3.627877   345A      3.977195
     346A      3.977345   347A      4.253446   348A      4.253591

    Final Occupation by Irrep:
              A
    DOCC [    42 ]

  @DF-RHF Final Energy:  -525.27988474617268

   => Energetics <=

    Nuclear Repulsion Energy =            490.5339295918851690
    One-Electron Energy =               -1681.7825824065275810
    Two-Electron Energy =                 665.9687680684696716
    Total Energy =                       -525.2798847461726837

Computation Completed


Properties will be evaluated at   0.000000,   0.000000,   0.000000 [a0]

Properties computed using the SCF density matrix

  Nuclear Dipole Moment: [e a0]
     X:  -259.9086      Y:  -149.8134      Z: -1001.2102

  Electronic Dipole Moment: [e a0]
     X:   259.9091      Y:   149.8122      Z:  1001.2111

  Dipole Moment: [e a0]
     X:     0.0005      Y:    -0.0011      Z:     0.0009     Total:     0.0015

  Dipole Moment: [D]
     X:     0.0012      Y:    -0.0029      Z:     0.0024     Total:     0.0039


*** tstop() called on atl1-1-01-015-26-r.pace.gatech.edu at Mon Nov 29 16:11:30 2021
Module time:
	user time   =      26.62 seconds =       0.44 minutes
	system time =       1.05 seconds =       0.02 minutes
	total time  =         15 seconds =       0.25 minutes
Total time:
	user time   =      26.62 seconds =       0.44 minutes
	system time =       1.05 seconds =       0.02 minutes
	total time  =         15 seconds =       0.25 minutes

  //>>>>>>>>>>>>>>>>>>>>>>>>>>>>>>>>>>>//
  //            Monomer A HF           //
  //<<<<<<<<<<<<<<<<<<<<<<<<<<<<<<<<<<<//


*** tstart() called on atl1-1-01-015-26-r.pace.gatech.edu
*** at Mon Nov 29 16:11:30 2021

   => Loading Basis Set <=

    Name: AUG-CC-PVDZ
    Role: ORBITAL
    Keyword: BASIS
    atoms 1-2, 11-12  entry N          line   218 file /storage/home/hhive1/csargent30/data/miniconda3/envs/psi4/share/psi4/basis/aug-cc-pvdz.gbs
    atoms 3-6, 13-16  entry H          line    40 file /storage/home/hhive1/csargent30/data/miniconda3/envs/psi4/share/psi4/basis/aug-cc-pvdz.gbs
    atoms 7-10, 17-20 entry C          line   182 file /storage/home/hhive1/csargent30/data/miniconda3/envs/psi4/share/psi4/basis/aug-cc-pvdz.gbs


         ---------------------------------------------------------
                                   SCF
               by Justin Turney, Rob Parrish, Andy Simmonett
                          and Daniel G. A. Smith
                              RHF Reference
                        2 Threads,   6675 MiB Core
         ---------------------------------------------------------

  ==> Geometry <==

    Molecular point group: c1
    Full point group: C1

    Geometry (in Bohr), charge = 0, multiplicity = 1:

       Center              X                  Y                   Z               Mass
    ------------   -----------------  -----------------  -----------------  -----------------
         N           -1.330847580000     0.980326580000     0.426270370000    14.003074004430
         N            3.953773330000     0.980326580000     0.426270370000    14.003074004430
         H            3.567136740000     4.352185690000    -0.942309730000     1.007825032230
         H           -0.944210980000     4.352185690000    -0.942309730000     1.007825032230
         H           -0.944210980000    -2.391532530000     1.794850470000     1.007825032230
         H            3.567136740000    -2.391532530000     1.794850470000     1.007825032230
         C            2.622925760000     2.940979740000    -0.426270370000    12.000000000000
         C            0.000000000000     2.940979740000    -0.426270370000    12.000000000000
         C            0.000000000000    -0.980326580000     1.278811120000    12.000000000000
         C            2.622925760000    -0.980326580000     1.278811120000    12.000000000000
      Gh(N)         -10.142073580000    -4.547311310000   -24.264607720000    14.003074004430
      Gh(N)          -4.857452670000    -4.547311310000   -24.264607720000    14.003074004430
      Gh(H)          -9.755436980000    -7.919170420000   -25.633187820000     1.007825032230
      Gh(H)          -9.755436980000    -1.175452200000   -22.896027620000     1.007825032230
      Gh(H)          -5.244089270000    -7.919170420000   -25.633187820000     1.007825032230
      Gh(H)          -5.244089270000    -1.175452200000   -22.896027620000     1.007825032230
      Gh(C)          -8.811226010000    -6.507964470000   -25.117148470000    12.000000000000
      Gh(C)          -8.811226010000    -2.586658150000   -23.412066970000    12.000000000000
      Gh(C)          -6.188300250000    -6.507964470000   -25.117148470000    12.000000000000
      Gh(C)          -6.188300250000    -2.586658150000   -23.412066970000    12.000000000000

  Running in c1 symmetry.

  Rotational constants: A =      0.05199  B =      0.00112  C =      0.00111 [cm^-1]
  Rotational constants: A =   1558.72646  B =     33.43049  C =     33.32101 [MHz]
  Nuclear repulsion =  212.551731110485349

  Charge       = 0
  Multiplicity = 1
  Electrons    = 42
  Nalpha       = 21
  Nbeta        = 21

  ==> Algorithm <==

  SCF Algorithm Type is DF.
  DIIS enabled.
  MOM disabled.
  Fractional occupation disabled.
  Guess Type is SAD.
  Energy threshold   = 1.00e-10
  Density threshold  = 1.00e-10
  Integral threshold = 1.00e-12

  ==> Primary Basis <==

  Basis Set: AUG-CC-PVDZ
    Blend: AUG-CC-PVDZ
    Number of shells: 148
    Number of basis functions: 348
    Number of Cartesian functions: 372
    Spherical Harmonics?: true
    Max angular momentum: 2

   => Loading Basis Set <=

    Name: (AUG-CC-PVDZ AUX)
    Role: JKFIT
    Keyword: DF_BASIS_SCF
    atoms 1-2, 11-12  entry N          line   212 file /storage/home/hhive1/csargent30/data/miniconda3/envs/psi4/share/psi4/basis/aug-cc-pvdz-jkfit.gbs
    atoms 3-6, 13-16  entry H          line    70 file /storage/home/hhive1/csargent30/data/miniconda3/envs/psi4/share/psi4/basis/aug-cc-pvdz-jkfit.gbs
    atoms 7-10, 17-20 entry C          line   154 file /storage/home/hhive1/csargent30/data/miniconda3/envs/psi4/share/psi4/basis/aug-cc-pvdz-jkfit.gbs

  ==> Integral Setup <==

  ==> DiskDFJK: Density-Fitted J/K Matrices <==

    J tasked:                  Yes
    K tasked:                  Yes
    wK tasked:                  No
    OpenMP threads:              2
    Integrals threads:           2
    Memory [MiB]:             5006
    Algorithm:                Core
    Integral Cache:           LOAD
    Schwarz Cutoff:          1E-12
    Fitting Condition:       1E-10

   => Auxiliary Basis Set <=

  Basis Set: (AUG-CC-PVDZ AUX)
    Blend: AUG-CC-PVDZ-JKFIT
    Number of shells: 432
    Number of basis functions: 1288
    Number of Cartesian functions: 1492
    Spherical Harmonics?: true
    Max angular momentum: 3

  Minimum eigenvalue in the overlap matrix is 9.4766039461E-06.
  Reciprocal condition number of the overlap matrix is 7.3914250656E-07.
    Using symmetric orthogonalization.

  ==> Pre-Iterations <==

  SCF Guess: Superposition of Atomic Densities via on-the-fly atomic UHF (no occupation information).

   -------------------------
    Irrep   Nso     Nmo
   -------------------------
     A        348     348
   -------------------------
    Total     348     348
   -------------------------

  ==> Iterations <==

                           Total Energy        Delta E     RMS |[F,P]|

   @DF-RHF iter SAD:  -262.32523126003173   -2.62325e+02   0.00000e+00
   @DF-RHF iter   1:  -262.53940799472133   -2.14177e-01   1.11985e-03 DIIS
   @DF-RHF iter   2:  -262.62878839250408   -8.93804e-02   4.10664e-04 DIIS
   @DF-RHF iter   3:  -262.63862293762708   -9.83455e-03   1.28248e-04 DIIS
   @DF-RHF iter   4:  -262.63984769083993   -1.22475e-03   3.77599e-05 DIIS
   @DF-RHF iter   5:  -262.63993729130374   -8.96005e-05   7.55558e-06 DIIS
   @DF-RHF iter   6:  -262.63994384156456   -6.55026e-06   2.45264e-06 DIIS
   @DF-RHF iter   7:  -262.63994479393835   -9.52374e-07   6.40130e-07 DIIS
   @DF-RHF iter   8:  -262.63994486782599   -7.38876e-08   9.91693e-08 DIIS
   @DF-RHF iter   9:  -262.63994486981176   -1.98577e-09   1.88228e-08 DIIS
   @DF-RHF iter  10:  -262.63994486988236   -7.05995e-11   3.19151e-09 DIIS
   @DF-RHF iter  11:  -262.63994486988486   -2.50111e-12   5.22317e-10 DIIS
   @DF-RHF iter  12:  -262.63994486988497   -1.13687e-13   9.54330e-11 DIIS
  Energy and wave function converged.


  ==> Post-Iterations <==

    Orbital Energies [Eh]
    ---------------------

    Doubly Occupied:

       1A    -15.598072     2A    -15.598053     3A    -11.274239
       4A    -11.274194     5A    -11.272975     6A    -11.272969
       7A     -1.313347     8A     -1.224176     9A     -1.076803
      10A     -0.922662    11A     -0.919282    12A     -0.760637
      13A     -0.738402    14A     -0.706214    15A     -0.647687
      16A     -0.580711    17A     -0.574369    18A     -0.497113
      19A     -0.434288    20A     -0.415855    21A     -0.359924

    Virtual:

      22A      0.022453    23A      0.034450    24A      0.039447
      25A      0.040709    26A      0.041294    27A      0.048393
      28A      0.058546    29A      0.058901    30A      0.067115
      31A      0.079728    32A      0.085059    33A      0.099419
      34A      0.100947    35A      0.103977    36A      0.108555
      37A      0.108879    38A      0.114202    39A      0.114942
      40A      0.122521    41A      0.123739    42A      0.125244
      43A      0.125697    44A      0.128669    45A      0.130984
      46A      0.132901    47A      0.134160    48A      0.151994
      49A      0.153041    50A      0.158273    51A      0.159368
      52A      0.161199    53A      0.161340    54A      0.163944
      55A      0.175183    56A      0.176760    57A      0.186917
      58A      0.197855    59A      0.203848    60A      0.204003
      61A      0.206726    62A      0.212542    63A      0.222429
      64A      0.233646    65A      0.239465    66A      0.250530
      67A      0.255261    68A      0.267739    69A      0.270849
      70A      0.278060    71A      0.287814    72A      0.293207
      73A      0.295743    74A      0.302378    75A      0.314833
      76A      0.320433    77A      0.320689    78A      0.328190
      79A      0.331343    80A      0.344151    81A      0.355431
      82A      0.357913    83A      0.364668    84A      0.380522
      85A      0.382594    86A      0.385668    87A      0.398893
      88A      0.401325    89A      0.409906    90A      0.419292
      91A      0.424952    92A      0.425491    93A      0.433929
      94A      0.437231    95A      0.441961    96A      0.452093
      97A      0.460692    98A      0.461136    99A      0.471483
     100A      0.476116   101A      0.478855   102A      0.492140
     103A      0.504854   104A      0.507865   105A      0.514914
     106A      0.523776   107A      0.524547   108A      0.528706
     109A      0.535767   110A      0.554578   111A      0.557873
     112A      0.561540   113A      0.564523   114A      0.570535
     115A      0.581953   116A      0.587541   117A      0.591507
     118A      0.593800   119A      0.596030   120A      0.608930
     121A      0.615173   122A      0.620192   123A      0.636399
     124A      0.643518   125A      0.644323   126A      0.649381
     127A      0.651521   128A      0.679438   129A      0.685132
     130A      0.685326   131A      0.687780   132A      0.689947
     133A      0.690347   134A      0.694830   135A      0.703834
     136A      0.719913   137A      0.728426   138A      0.746524
     139A      0.746867   140A      0.754817   141A      0.766968
     142A      0.775713   143A      0.781412   144A      0.793658
     145A      0.799815   146A      0.802713   147A      0.811124
     148A      0.812004   149A      0.819016   150A      0.824780
     151A      0.831072   152A      0.847510   153A      0.848094
     154A      0.849221   155A      0.868634   156A      0.880545
     157A      0.886410   158A      0.888180   159A      0.894684
     160A      0.906135   161A      0.929143   162A      0.929272
     163A      0.939474   164A      0.947721   165A      0.949312
     166A      0.970812   167A      0.976965   168A      0.986664
     169A      0.996653   170A      0.998908   171A      1.013016
     172A      1.032443   173A      1.033371   174A      1.046959
     175A      1.051195   176A      1.076295   177A      1.089381
     178A      1.090310   179A      1.100445   180A      1.122201
     181A      1.124044   182A      1.130690   183A      1.134377
     184A      1.140295   185A      1.158744   186A      1.168620
     187A      1.170708   188A      1.173565   189A      1.192245
     190A      1.193279   191A      1.200507   192A      1.222344
     193A      1.235418   194A      1.238805   195A      1.251061
     196A      1.307588   197A      1.309674   198A      1.318296
     199A      1.326442   200A      1.329645   201A      1.331148
     202A      1.346840   203A      1.389240   204A      1.414283
     205A      1.448420   206A      1.451527   207A      1.455490
     208A      1.479168   209A      1.486137   210A      1.487235
     211A      1.488076   212A      1.499216   213A      1.502850
     214A      1.518253   215A      1.572686   216A      1.574206
     217A      1.587852   218A      1.635984   219A      1.640505
     220A      1.648224   221A      1.659272   222A      1.676552
     223A      1.698099   224A      1.716991   225A      1.746598
     226A      1.755105   227A      1.783770   228A      1.815727
     229A      1.893323   230A      1.916138   231A      1.964830
     232A      1.987675   233A      2.031203   234A      2.070257
     235A      2.091549   236A      2.101029   237A      2.102800
     238A      2.119476   239A      2.142954   240A      2.156706
     241A      2.159220   242A      2.163356   243A      2.190489
     244A      2.193304   245A      2.194892   246A      2.200380
     247A      2.202411   248A      2.227626   249A      2.234808
     250A      2.241240   251A      2.249690   252A      2.310044
     253A      2.312763   254A      2.319588   255A      2.355230
     256A      2.384837   257A      2.419242   258A      2.430957
     259A      2.435442   260A      2.438186   261A      2.438995
     262A      2.472709   263A      2.486754   264A      2.498348
     265A      2.519379   266A      2.522395   267A      2.525101
     268A      2.546027   269A      2.568366   270A      2.584768
     271A      2.592405   272A      2.606266   273A      2.626002
     274A      2.665224   275A      2.675410   276A      2.686396
     277A      2.713986   278A      2.716933   279A      2.718593
     280A      2.726685   281A      2.767968   282A      2.844014
     283A      2.865761   284A      2.904069   285A      2.939196
     286A      2.947258   287A      2.955785   288A      2.973374
     289A      3.001855   290A      3.017872   291A      3.032187
     292A      3.058364   293A      3.065265   294A      3.094137
     295A      3.113901   296A      3.220320   297A      3.245762
     298A      3.255980   299A      3.284882   300A      3.289716
     301A      3.321994   302A      3.337777   303A      3.340519
     304A      3.348693   305A      3.351418   306A      3.366140
     307A      3.412664   308A      3.413369   309A      3.470818
     310A      3.502019   311A      3.514920   312A      3.521431
     313A      3.590655   314A      3.604506   315A      3.605714
     316A      3.627770   317A      3.700552   318A      3.818993
     319A      3.830755   320A      3.941036   321A      3.969162
     322A      3.977238   323A      4.011469   324A      4.194826
     325A      4.242327   326A      4.253486   327A      4.442055
     328A      4.546895   329A      4.579345   330A      4.867708
     331A      4.976209   332A      5.057922   333A      5.261780
     334A      5.316606   335A      5.630267   336A      5.691391
     337A      5.827215   338A      5.952696   339A      6.283895
     340A      6.306955   341A      6.453829   342A      6.631264
     343A     18.125783   344A     18.208045   345A     19.017646
     346A     19.343066   347A     25.287129   348A     25.374849

    Final Occupation by Irrep:
              A
    DOCC [    21 ]

  @DF-RHF Final Energy:  -262.63994486988497

   => Energetics <=

    Nuclear Repulsion Energy =            212.5517311104853491
    One-Electron Energy =                -775.4594098079904825
    Two-Electron Energy =                 300.2677338276201908
    Total Energy =                       -262.6399448698849710

Computation Completed


Properties will be evaluated at   0.000000,   0.000000,   0.000000 [a0]

Properties computed using the SCF density matrix

  Nuclear Dipole Moment: [e a0]
     X:    55.0814      Y:    41.1737      Z:    17.9034

  Electronic Dipole Moment: [e a0]
     X:   -55.0814      Y:   -41.1737      Z:   -17.9034

  Dipole Moment: [e a0]
     X:    -0.0000      Y:    -0.0000      Z:    -0.0000     Total:     0.0000

  Dipole Moment: [D]
     X:    -0.0000      Y:    -0.0000      Z:    -0.0000     Total:     0.0000


*** tstop() called on atl1-1-01-015-26-r.pace.gatech.edu at Mon Nov 29 16:11:39 2021
Module time:
	user time   =      16.04 seconds =       0.27 minutes
	system time =       0.51 seconds =       0.01 minutes
	total time  =          9 seconds =       0.15 minutes
Total time:
	user time   =      42.67 seconds =       0.71 minutes
	system time =       1.56 seconds =       0.03 minutes
	total time  =         24 seconds =       0.40 minutes

  //>>>>>>>>>>>>>>>>>>>>>>>>>>>>>>>>>>>//
  //            Monomer B HF           //
  //<<<<<<<<<<<<<<<<<<<<<<<<<<<<<<<<<<<//


*** tstart() called on atl1-1-01-015-26-r.pace.gatech.edu
*** at Mon Nov 29 16:11:39 2021

   => Loading Basis Set <=

    Name: AUG-CC-PVDZ
    Role: ORBITAL
    Keyword: BASIS
    atoms 1-2, 11-12  entry N          line   218 file /storage/home/hhive1/csargent30/data/miniconda3/envs/psi4/share/psi4/basis/aug-cc-pvdz.gbs
    atoms 3-6, 13-16  entry H          line    40 file /storage/home/hhive1/csargent30/data/miniconda3/envs/psi4/share/psi4/basis/aug-cc-pvdz.gbs
    atoms 7-10, 17-20 entry C          line   182 file /storage/home/hhive1/csargent30/data/miniconda3/envs/psi4/share/psi4/basis/aug-cc-pvdz.gbs


         ---------------------------------------------------------
                                   SCF
               by Justin Turney, Rob Parrish, Andy Simmonett
                          and Daniel G. A. Smith
                              RHF Reference
                        2 Threads,   6675 MiB Core
         ---------------------------------------------------------

  ==> Geometry <==

    Molecular point group: c1
    Full point group: C1

    Geometry (in Bohr), charge = 0, multiplicity = 1:

       Center              X                  Y                   Z               Mass
    ------------   -----------------  -----------------  -----------------  -----------------
      Gh(N)          -1.330847580000     0.980326580000     0.426270370000    14.003074004430
      Gh(N)           3.953773330000     0.980326580000     0.426270370000    14.003074004430
      Gh(H)           3.567136740000     4.352185690000    -0.942309730000     1.007825032230
      Gh(H)          -0.944210980000     4.352185690000    -0.942309730000     1.007825032230
      Gh(H)          -0.944210980000    -2.391532530000     1.794850470000     1.007825032230
      Gh(H)           3.567136740000    -2.391532530000     1.794850470000     1.007825032230
      Gh(C)           2.622925760000     2.940979740000    -0.426270370000    12.000000000000
      Gh(C)           0.000000000000     2.940979740000    -0.426270370000    12.000000000000
      Gh(C)           0.000000000000    -0.980326580000     1.278811120000    12.000000000000
      Gh(C)           2.622925760000    -0.980326580000     1.278811120000    12.000000000000
         N          -10.142073580000    -4.547311310000   -24.264607720000    14.003074004430
         N           -4.857452670000    -4.547311310000   -24.264607720000    14.003074004430
         H           -9.755436980000    -7.919170420000   -25.633187820000     1.007825032230
         H           -9.755436980000    -1.175452200000   -22.896027620000     1.007825032230
         H           -5.244089270000    -7.919170420000   -25.633187820000     1.007825032230
         H           -5.244089270000    -1.175452200000   -22.896027620000     1.007825032230
         C           -8.811226010000    -6.507964470000   -25.117148470000    12.000000000000
         C           -8.811226010000    -2.586658150000   -23.412066970000    12.000000000000
         C           -6.188300250000    -6.507964470000   -25.117148470000    12.000000000000
         C           -6.188300250000    -2.586658150000   -23.412066970000    12.000000000000

  Running in c1 symmetry.

  Rotational constants: A =      0.05199  B =      0.00112  C =      0.00111 [cm^-1]
  Rotational constants: A =   1558.72646  B =     33.43049  C =     33.32101 [MHz]
  Nuclear repulsion =  212.551731074928142

  Charge       = 0
  Multiplicity = 1
  Electrons    = 42
  Nalpha       = 21
  Nbeta        = 21

  ==> Algorithm <==

  SCF Algorithm Type is DF.
  DIIS enabled.
  MOM disabled.
  Fractional occupation disabled.
  Guess Type is SAD.
  Energy threshold   = 1.00e-10
  Density threshold  = 1.00e-10
  Integral threshold = 1.00e-12

  ==> Primary Basis <==

  Basis Set: AUG-CC-PVDZ
    Blend: AUG-CC-PVDZ
    Number of shells: 148
    Number of basis functions: 348
    Number of Cartesian functions: 372
    Spherical Harmonics?: true
    Max angular momentum: 2

   => Loading Basis Set <=

    Name: (AUG-CC-PVDZ AUX)
    Role: JKFIT
    Keyword: DF_BASIS_SCF
    atoms 1-2, 11-12  entry N          line   212 file /storage/home/hhive1/csargent30/data/miniconda3/envs/psi4/share/psi4/basis/aug-cc-pvdz-jkfit.gbs
    atoms 3-6, 13-16  entry H          line    70 file /storage/home/hhive1/csargent30/data/miniconda3/envs/psi4/share/psi4/basis/aug-cc-pvdz-jkfit.gbs
    atoms 7-10, 17-20 entry C          line   154 file /storage/home/hhive1/csargent30/data/miniconda3/envs/psi4/share/psi4/basis/aug-cc-pvdz-jkfit.gbs

  ==> Integral Setup <==

  ==> DiskDFJK: Density-Fitted J/K Matrices <==

    J tasked:                  Yes
    K tasked:                  Yes
    wK tasked:                  No
    OpenMP threads:              2
    Integrals threads:           2
    Memory [MiB]:             5006
    Algorithm:                Core
    Integral Cache:           LOAD
    Schwarz Cutoff:          1E-12
    Fitting Condition:       1E-10

   => Auxiliary Basis Set <=

  Basis Set: (AUG-CC-PVDZ AUX)
    Blend: AUG-CC-PVDZ-JKFIT
    Number of shells: 432
    Number of basis functions: 1288
    Number of Cartesian functions: 1492
    Spherical Harmonics?: true
    Max angular momentum: 3

  Minimum eigenvalue in the overlap matrix is 9.4766039461E-06.
  Reciprocal condition number of the overlap matrix is 7.3914250656E-07.
    Using symmetric orthogonalization.

  ==> Pre-Iterations <==

  SCF Guess: Superposition of Atomic Densities via on-the-fly atomic UHF (no occupation information).

   -------------------------
    Irrep   Nso     Nmo
   -------------------------
     A        348     348
   -------------------------
    Total     348     348
   -------------------------

  ==> Iterations <==

                           Total Energy        Delta E     RMS |[F,P]|

   @DF-RHF iter SAD:  -262.32523125528593   -2.62325e+02   0.00000e+00
   @DF-RHF iter   1:  -262.53940798492130   -2.14177e-01   1.11985e-03 DIIS
   @DF-RHF iter   2:  -262.62878838201613   -8.93804e-02   4.10664e-04 DIIS
   @DF-RHF iter   3:  -262.63862292692244   -9.83454e-03   1.28248e-04 DIIS
   @DF-RHF iter   4:  -262.63984768013057   -1.22475e-03   3.77599e-05 DIIS
   @DF-RHF iter   5:  -262.63993728059637   -8.96005e-05   7.55558e-06 DIIS
   @DF-RHF iter   6:  -262.63994383085583   -6.55026e-06   2.45264e-06 DIIS
   @DF-RHF iter   7:  -262.63994478322974   -9.52374e-07   6.40130e-07 DIIS
   @DF-RHF iter   8:  -262.63994485711771   -7.38880e-08   9.91693e-08 DIIS
   @DF-RHF iter   9:  -262.63994485910303   -1.98531e-09   1.88228e-08 DIIS
   @DF-RHF iter  10:  -262.63994485917476   -7.17364e-11   3.19151e-09 DIIS
   @DF-RHF iter  11:  -262.63994485917669   -1.93268e-12   5.22317e-10 DIIS
   @DF-RHF iter  12:  -262.63994485917647    2.27374e-13   9.54352e-11 DIIS
  Energy and wave function converged.


  ==> Post-Iterations <==

    Orbital Energies [Eh]
    ---------------------

    Doubly Occupied:

       1A    -15.598072     2A    -15.598053     3A    -11.274239
       4A    -11.274194     5A    -11.272975     6A    -11.272969
       7A     -1.313347     8A     -1.224176     9A     -1.076803
      10A     -0.922662    11A     -0.919282    12A     -0.760637
      13A     -0.738402    14A     -0.706214    15A     -0.647687
      16A     -0.580711    17A     -0.574369    18A     -0.497113
      19A     -0.434288    20A     -0.415855    21A     -0.359924

    Virtual:

      22A      0.022302    23A      0.034471    24A      0.039303
      25A      0.040567    26A      0.041297    27A      0.048385
      28A      0.058514    29A      0.058795    30A      0.067113
      31A      0.079580    32A      0.084920    33A      0.099419
      34A      0.100939    35A      0.103869    36A      0.108398
      37A      0.108736    38A      0.114202    39A      0.114951
      40A      0.122347    41A      0.123690    42A      0.125316
      43A      0.125539    44A      0.128656    45A      0.130845
      46A      0.132900    47A      0.134019    48A      0.151925
      49A      0.152858    50A      0.158213    51A      0.159277
      52A      0.161145    53A      0.161378    54A      0.163936
      55A      0.175182    56A      0.176630    57A      0.186917
      58A      0.197719    59A      0.203802    60A      0.203907
      61A      0.206586    62A      0.212544    63A      0.222280
      64A      0.233504    65A      0.239324    66A      0.250519
      67A      0.255121    68A      0.267756    69A      0.270669
      70A      0.278061    71A      0.287814    72A      0.293209
      73A      0.295747    74A      0.302223    75A      0.314832
      76A      0.320442    77A      0.320537    78A      0.328039
      79A      0.331214    80A      0.344005    81A      0.355449
      82A      0.357909    83A      0.364661    84A      0.380377
      85A      0.382584    86A      0.385528    87A      0.398877
      88A      0.401196    89A      0.409912    90A      0.419154
      91A      0.424789    92A      0.425510    93A      0.433927
      94A      0.437253    95A      0.441816    96A      0.452093
      97A      0.460555    98A      0.460988    99A      0.471484
     100A      0.475975   101A      0.478711   102A      0.492140
     103A      0.504860   104A      0.507714   105A      0.514915
     106A      0.523643   107A      0.524550   108A      0.528688
     109A      0.535614   110A      0.554579   111A      0.557730
     112A      0.561396   113A      0.564377   114A      0.570537
     115A      0.581796   116A      0.587535   117A      0.591506
     118A      0.593799   119A      0.595887   120A      0.608929
     121A      0.615032   122A      0.620056   123A      0.636253
     124A      0.643518   125A      0.644326   126A      0.649236
     127A      0.651374   128A      0.679294   129A      0.685132
     130A      0.685201   131A      0.687762   132A      0.689934
     133A      0.690354   134A      0.694830   135A      0.703835
     136A      0.719770   137A      0.728278   138A      0.746452
     139A      0.746815   140A      0.754817   141A      0.766965
     142A      0.775570   143A      0.781408   144A      0.793513
     145A      0.799815   146A      0.802712   147A      0.810981
     148A      0.811859   149A      0.819017   150A      0.824641
     151A      0.831071   152A      0.847511   153A      0.847952
     154A      0.849077   155A      0.868488   156A      0.880544
     157A      0.886410   158A      0.888032   159A      0.894683
     160A      0.905991   161A      0.928998   162A      0.929272
     163A      0.939469   164A      0.947576   165A      0.949312
     166A      0.970666   167A      0.976824   168A      0.986524
     169A      0.996653   170A      0.998908   171A      1.013015
     172A      1.032301   173A      1.033374   174A      1.046822
     175A      1.051195   176A      1.076150   177A      1.089381
     178A      1.090163   179A      1.100446   180A      1.122204
     181A      1.124044   182A      1.130553   183A      1.134367
     184A      1.140151   185A      1.158743   186A      1.168474
     187A      1.170560   188A      1.173565   189A      1.192104
     190A      1.193131   191A      1.200364   192A      1.222198
     193A      1.235420   194A      1.238805   195A      1.250915
     196A      1.307446   197A      1.309675   198A      1.318154
     199A      1.326299   200A      1.329500   201A      1.331148
     202A      1.346697   203A      1.389097   204A      1.414284
     205A      1.448275   206A      1.451528   207A      1.455346
     208A      1.479021   209A      1.486138   210A      1.487092
     211A      1.488075   212A      1.499218   213A      1.502850
     214A      1.518252   215A      1.572686   216A      1.574199
     217A      1.587844   218A      1.635985   219A      1.640507
     220A      1.648223   221A      1.659127   222A      1.676552
     223A      1.697954   224A      1.716991   225A      1.746597
     226A      1.755104   227A      1.783766   228A      1.815727
     229A      1.893323   230A      1.916138   231A      1.964829
     232A      1.987675   233A      2.031203   234A      2.070113
     235A      2.091549   236A      2.101026   237A      2.102657
     238A      2.119331   239A      2.142953   240A      2.156561
     241A      2.159078   242A      2.163355   243A      2.190489
     244A      2.193306   245A      2.194746   246A      2.200380
     247A      2.202411   248A      2.227626   249A      2.234663
     250A      2.241093   251A      2.249545   252A      2.309899
     253A      2.312760   254A      2.319450   255A      2.355231
     256A      2.384694   257A      2.419096   258A      2.430957
     259A      2.435299   260A      2.438052   261A      2.438979
     262A      2.472564   263A      2.486610   264A      2.498205
     265A      2.519379   266A      2.522395   267A      2.524956
     268A      2.545883   269A      2.568231   270A      2.584766
     271A      2.592259   272A      2.606266   273A      2.625859
     274A      2.665225   275A      2.675409   276A      2.686398
     277A      2.713987   278A      2.716788   279A      2.718592
     280A      2.726540   281A      2.767824   282A      2.844014
     283A      2.865761   284A      2.903931   285A      2.939197
     286A      2.947114   287A      2.955642   288A      2.973232
     289A      3.001856   290A      3.017872   291A      3.032187
     292A      3.058219   293A      3.065117   294A      3.094137
     295A      3.113756   296A      3.220331   297A      3.245617
     298A      3.255980   299A      3.284883   300A      3.289572
     301A      3.321850   302A      3.337634   303A      3.340375
     304A      3.348548   305A      3.351274   306A      3.366141
     307A      3.412519   308A      3.413369   309A      3.470674
     310A      3.501875   311A      3.514920   312A      3.521289
     313A      3.590655   314A      3.604360   315A      3.605572
     316A      3.627769   317A      3.700409   318A      3.818846
     319A      3.830611   320A      3.940892   321A      3.969017
     322A      3.977238   323A      4.011323   324A      4.194680
     325A      4.242175   326A      4.253485   327A      4.441911
     328A      4.546751   329A      4.579201   330A      4.867564
     331A      4.976064   332A      5.057777   333A      5.261633
     334A      5.316461   335A      5.630120   336A      5.691246
     337A      5.827071   338A      5.952551   339A      6.283750
     340A      6.306810   341A      6.453685   342A      6.631120
     343A     18.125638   344A     18.207900   345A     19.017498
     346A     19.342921   347A     25.286985   348A     25.374705

    Final Occupation by Irrep:
              A
    DOCC [    21 ]

  @DF-RHF Final Energy:  -262.63994485917647

   => Energetics <=

    Nuclear Repulsion Energy =            212.5517310749281421
    One-Electron Energy =                -775.4594096613163856
    Two-Electron Energy =                 300.2677337272117484
    Total Energy =                       -262.6399448591764667

Computation Completed


Properties will be evaluated at   0.000000,   0.000000,   0.000000 [a0]

Properties computed using the SCF density matrix

  Nuclear Dipole Moment: [e a0]
     X:  -314.9901      Y:  -190.9871      Z: -1019.1135

  Electronic Dipole Moment: [e a0]
     X:   314.9901      Y:   190.9871      Z:  1019.1135

  Dipole Moment: [e a0]
     X:     0.0000      Y:    -0.0000      Z:     0.0000     Total:     0.0000

  Dipole Moment: [D]
     X:     0.0000      Y:    -0.0000      Z:     0.0000     Total:     0.0000


*** tstop() called on atl1-1-01-015-26-r.pace.gatech.edu at Mon Nov 29 16:11:48 2021
Module time:
	user time   =      15.86 seconds =       0.26 minutes
	system time =       0.52 seconds =       0.01 minutes
	total time  =          9 seconds =       0.15 minutes
Total time:
	user time   =      58.54 seconds =       0.98 minutes
	system time =       2.08 seconds =       0.03 minutes
	total time  =         33 seconds =       0.55 minutes
  Constructing Basis Sets for SAPT...

   => Loading Basis Set <=

    Name: (AUG-CC-PVDZ AUX)
    Role: RIFIT
    Keyword: DF_BASIS_SAPT
    atoms 1-2, 11-12  entry N          line   158 file /storage/home/hhive1/csargent30/data/miniconda3/envs/psi4/share/psi4/basis/aug-cc-pvdz-ri.gbs
    atoms 3-6, 13-16  entry H          line    30 file /storage/home/hhive1/csargent30/data/miniconda3/envs/psi4/share/psi4/basis/aug-cc-pvdz-ri.gbs
    atoms 7-10, 17-20 entry C          line   112 file /storage/home/hhive1/csargent30/data/miniconda3/envs/psi4/share/psi4/basis/aug-cc-pvdz-ri.gbs


  //>>>>>>>>>>>>>>>>>>>>>>>>>>>>>>>>>>>//
  //               SAPT0               //
  //<<<<<<<<<<<<<<<<<<<<<<<<<<<<<<<<<<<//


*** tstart() called on atl1-1-01-015-26-r.pace.gatech.edu
*** at Mon Nov 29 16:11:48 2021

        SAPT0
    Ed Hohenstein
     6 June 2009

      Orbital Information
  --------------------------
    NSO        =       348
    NMO        =       348
    NRI        =      1048
    NOCC A     =        21
    NOCC B     =        21
    FOCC A     =         6
    FOCC B     =         6
    NVIR A     =       327
    NVIR B     =       327

    Elst10,r            =     0.000004999662 [Eh]
    Exch10              =     0.000000000018 [Eh]
    Exch10 (S^2)        =     0.000000000018 [Eh]

    Iter     Energy [mEh]          dE [mEh]         Residual      Time [s]
       1      -0.00001535       0.000015345       0.045193252             0
       2      -0.00001373      -0.000001612       0.009679495             1
       3      -0.00001529       0.000001558       0.003627580             1
       4      -0.00001541       0.000000115       0.002036157             1
       5      -0.00001535      -0.000000061       0.000995827             2
       6      -0.00001532      -0.000000024       0.000318089             2
       7      -0.00001533       0.000000006       0.000117972             3
       8      -0.00001533       0.000000004       0.000028781             3
       9      -0.00001533      -0.000000001       0.000010816             3
      10      -0.00001533      -0.000000000       0.000003665             4
      11      -0.00001533       0.000000000       0.000001968             4
      12      -0.00001533       0.000000000       0.000000801             4

    CHF Iterations converged


    Iter     Energy [mEh]          dE [mEh]         Residual      Time [s]
       1      -0.00000516       0.000005157       0.022004378             1
       2      -0.00000461      -0.000000549       0.004766925             1
       3      -0.00000490       0.000000291       0.002567188             1
       4      -0.00000503       0.000000128       0.000584083             2
       5      -0.00000501      -0.000000019       0.000377665             2
       6      -0.00000500      -0.000000005       0.000161024             3
       7      -0.00000501       0.000000003       0.000043945             3
       8      -0.00000501       0.000000000       0.000013056             3
       9      -0.00000501      -0.000000000       0.000004446             4
      10      -0.00000501      -0.000000000       0.000001500             4
      11      -0.00000501       0.000000000       0.000000751             4

    CHF Iterations converged

    Ind20,r (A<-B)      =    -0.000000015330 [Eh]
    Ind20,r (B<-A)      =    -0.000000005007 [Eh]
    Ind20,r             =    -0.000000020336 [Eh]
    Exch-Ind20,r (A<-B) =     0.000000000023 [Eh]
    Exch-Ind20,r (B<-A) =     0.000000000012 [Eh]
    Exch-Ind20,r        =     0.000000000034 [Eh]
    Disp20              =    -0.000004081483 [Eh]
    Disp20 (SS)         =    -0.000002040741 [Eh]
    Disp20 (OS)         =    -0.000002040741 [Eh]
    Exch-Disp20         =     0.000000000002 [Eh]
    Exch-Disp20 (SS)    =     0.000000000002 [Eh]
    Exch-Disp20 (OS)    =     0.000000000000 [Eh]

    SAPT Results
  --------------------------------------------------------------------------------------------------------
    Electrostatics                  0.00499966 [mEh]       0.00313734 [kcal/mol]       0.01312661 [kJ/mol]
      Elst10,r                      0.00499966 [mEh]       0.00313734 [kcal/mol]       0.01312661 [kJ/mol]

    Exchange                        0.00000002 [mEh]       0.00000001 [kcal/mol]       0.00000005 [kJ/mol]
      Exch10                        0.00000002 [mEh]       0.00000001 [kcal/mol]       0.00000005 [kJ/mol]
      Exch10(S^2)                   0.00000002 [mEh]       0.00000001 [kcal/mol]       0.00000005 [kJ/mol]

    Induction                      -0.00001679 [mEh]      -0.00001054 [kcal/mol]      -0.00004409 [kJ/mol]
      Ind20,r                      -0.00002034 [mEh]      -0.00001276 [kcal/mol]      -0.00005339 [kJ/mol]
      Exch-Ind20,r                  0.00000003 [mEh]       0.00000002 [kcal/mol]       0.00000009 [kJ/mol]
      delta HF,r (2)                0.00000351 [mEh]       0.00000220 [kcal/mol]       0.00000922 [kJ/mol]

    Dispersion                     -0.00408148 [mEh]      -0.00256117 [kcal/mol]      -0.01071593 [kJ/mol]
      Disp20                       -0.00408148 [mEh]      -0.00256117 [kcal/mol]      -0.01071593 [kJ/mol]
      Exch-Disp20                   0.00000000 [mEh]       0.00000000 [kcal/mol]       0.00000001 [kJ/mol]
      Disp20 (SS)                  -0.00204074 [mEh]      -0.00128058 [kcal/mol]      -0.00535797 [kJ/mol]
      Disp20 (OS)                  -0.00204074 [mEh]      -0.00128058 [kcal/mol]      -0.00535797 [kJ/mol]
      Exch-Disp20 (SS)              0.00000000 [mEh]       0.00000000 [kcal/mol]       0.00000000 [kJ/mol]
      Exch-Disp20 (OS)              0.00000000 [mEh]       0.00000000 [kcal/mol]       0.00000000 [kJ/mol]

  Total HF                          0.00498289 [mEh]       0.00312681 [kcal/mol]       0.01308257 [kJ/mol]
  Total SAPT0                       0.00090141 [mEh]       0.00056564 [kcal/mol]       0.00236665 [kJ/mol]

  Special recipe for scaled SAPT0 (see Manual):
    Electrostatics sSAPT0           0.00499966 [mEh]       0.00313734 [kcal/mol]       0.01312661 [kJ/mol]
    Exchange sSAPT0                 0.00000002 [mEh]       0.00000001 [kcal/mol]       0.00000005 [kJ/mol]
    Induction sSAPT0               -0.00001679 [mEh]      -0.00001054 [kcal/mol]      -0.00004409 [kJ/mol]
    Dispersion sSAPT0              -0.00408148 [mEh]      -0.00256117 [kcal/mol]      -0.01071593 [kJ/mol]
  Total sSAPT0                      0.00090141 [mEh]       0.00056564 [kcal/mol]       0.00236665 [kJ/mol]
  --------------------------------------------------------------------------------------------------------

*** tstop() called on atl1-1-01-015-26-r.pace.gatech.edu at Mon Nov 29 16:12:14 2021
Module time:
	user time   =      38.76 seconds =       0.65 minutes
	system time =       9.09 seconds =       0.15 minutes
	total time  =         26 seconds =       0.43 minutes
Total time:
	user time   =      97.55 seconds =       1.63 minutes
	system time =      11.17 seconds =       0.19 minutes
	total time  =         59 seconds =       0.98 minutes


Warning! sapt0 does not have an associated derived wavefunction.The returned wavefunction is the dimer SCF wavefunction.


    Psi4 stopped on: Monday, 29 November 2021 04:12PM
    Psi4 wall time for execution: 0:00:58.87

*** Psi4 exiting successfully. Buy a developer a beer!
