
    -----------------------------------------------------------------------
          Psi4: An Open-Source Ab Initio Electronic Structure Package
                               Psi4 1.4.1 release

                         Git: Rev {HEAD} cd00f19


    D. G. A. Smith, L. A. Burns, A. C. Simmonett, R. M. Parrish,
    M. C. Schieber, R. Galvelis, P. Kraus, H. Kruse, R. Di Remigio,
    A. Alenaizan, A. M. James, S. Lehtola, J. P. Misiewicz, M. Scheurer,
    R. A. Shaw, J. B. Schriber, Y. Xie, Z. L. Glick, D. A. Sirianni,
    J. S. O'Brien, J. M. Waldrop, A. Kumar, E. G. Hohenstein,
    B. P. Pritchard, B. R. Brooks, H. F. Schaefer III, A. Yu. Sokolov,
    K. Patkowski, A. E. DePrince III, U. Bozkaya, R. A. King,
    F. A. Evangelista, J. M. Turney, T. D. Crawford, C. D. Sherrill,
    J. Chem. Phys. 152(18) 184108 (2020). https://doi.org/10.1063/5.0006002

                            Additional Code Authors
    E. T. Seidl, C. L. Janssen, E. F. Valeev, M. L. Leininger,
    J. F. Gonthier, R. M. Richard, H. R. McAlexander, M. Saitow, X. Wang,
    P. Verma, and M. H. Lechner

             Previous Authors, Complete List of Code Contributors,
                       and Citations for Specific Modules
    https://github.com/psi4/psi4/blob/master/codemeta.json
    https://github.com/psi4/psi4/graphs/contributors
    http://psicode.org/psi4manual/master/introduction.html#citing-psifour

    -----------------------------------------------------------------------


    Psi4 started on: Monday, 29 November 2021 04:10PM

    Process ID: 14187
    Host:       atl1-1-01-015-20-r.pace.gatech.edu
    PSIDATADIR: /storage/home/hhive1/csargent30/data/miniconda3/envs/psi4/share/psi4
    Memory:     500.0 MiB
    Threads:    2

  ==> Input File <==

--------------------------------------------------------------------------
# PSI4 file produced by CrystaLattE

# Generated from:               pyrazine.xyz
# Psithon input for N-mer:      2mer-0+70
# Number of atoms per monomer:  [10, 10]
# Number of replicas:           2
# COM priority:                 7.999235773177e-05
# Minimum COM separations:      12.282
# Separation priority:          1.652950044422e-04
# Minimum monomer separations:  9.642
# Cutoff priority:              9.071511134946e-06
# Nuclear repulsion energy:     500.9496517593203

memory 7 GB

molecule Dimer_0_70 {
  N           -1.33084758       0.98032658       0.42627037
  N            3.95377333       0.98032658       0.42627037
  H            3.56713674       4.35218569      -0.94230973
  H           -0.94421098       4.35218569      -0.94230973
  H           -0.94421098      -2.39153253       1.79485047
  H            3.56713674      -2.39153253       1.79485047
  C            2.62292576       2.94097974      -0.42627037
  C            0.00000000       2.94097974      -0.42627037
  C            0.00000000      -0.98032658       1.27881112
  C            2.62292576      -0.98032658       1.27881112
--
  N           -1.33084758     -21.13022498      -6.62826622
  N            3.95377333     -21.13022498      -6.62826622
  H            3.56713674     -17.75836587      -7.99684633
  H           -0.94421098     -17.75836587      -7.99684633
  H           -0.94421098     -24.50208409      -5.25968612
  H            3.56713674     -24.50208409      -5.25968612
  C            2.62292576     -19.16957182      -7.48080697
  C            0.00000000     -19.16957182      -7.48080697
  C            0.00000000     -23.09087814      -5.77572548
  C            2.62292576     -23.09087814      -5.77572548
units = au
no_com
no_reorient
}

set {
  e_convergence 10
  d_convergence 10
  scf_type df
  mp2_type df
  cc_type df
  freeze_core true
}

energy('sapt0/aug-cc-pvdz')

--------------------------------------------------------------------------

  Memory set to   6.519 GiB by Python driver.

Scratch directory: /tmp/

Scratch directory: /tmp/

  //>>>>>>>>>>>>>>>>>>>>>>>>>>>>>>>>>>>//
  //              Dimer HF             //
  //<<<<<<<<<<<<<<<<<<<<<<<<<<<<<<<<<<<//


*** tstart() called on atl1-1-01-015-20-r.pace.gatech.edu
*** at Mon Nov 29 16:10:40 2021

   => Loading Basis Set <=

    Name: AUG-CC-PVDZ
    Role: ORBITAL
    Keyword: BASIS
    atoms 1-2, 11-12  entry N          line   218 file /storage/home/hhive1/csargent30/data/miniconda3/envs/psi4/share/psi4/basis/aug-cc-pvdz.gbs
    atoms 3-6, 13-16  entry H          line    40 file /storage/home/hhive1/csargent30/data/miniconda3/envs/psi4/share/psi4/basis/aug-cc-pvdz.gbs
    atoms 7-10, 17-20 entry C          line   182 file /storage/home/hhive1/csargent30/data/miniconda3/envs/psi4/share/psi4/basis/aug-cc-pvdz.gbs


         ---------------------------------------------------------
                                   SCF
               by Justin Turney, Rob Parrish, Andy Simmonett
                          and Daniel G. A. Smith
                              RHF Reference
                        2 Threads,   6675 MiB Core
         ---------------------------------------------------------

  ==> Geometry <==

    Molecular point group: c1
    Full point group: C1

    Geometry (in Bohr), charge = 0, multiplicity = 1:

       Center              X                  Y                   Z               Mass
    ------------   -----------------  -----------------  -----------------  -----------------
         N           -1.330847580000     0.980326580000     0.426270370000    14.003074004430
         N            3.953773330000     0.980326580000     0.426270370000    14.003074004430
         H            3.567136740000     4.352185690000    -0.942309730000     1.007825032230
         H           -0.944210980000     4.352185690000    -0.942309730000     1.007825032230
         H           -0.944210980000    -2.391532530000     1.794850470000     1.007825032230
         H            3.567136740000    -2.391532530000     1.794850470000     1.007825032230
         C            2.622925760000     2.940979740000    -0.426270370000    12.000000000000
         C            0.000000000000     2.940979740000    -0.426270370000    12.000000000000
         C            0.000000000000    -0.980326580000     1.278811120000    12.000000000000
         C            2.622925760000    -0.980326580000     1.278811120000    12.000000000000
         N           -1.330847580000   -21.130224980000    -6.628266220000    14.003074004430
         N            3.953773330000   -21.130224980000    -6.628266220000    14.003074004430
         H            3.567136740000   -17.758365870000    -7.996846330000     1.007825032230
         H           -0.944210980000   -17.758365870000    -7.996846330000     1.007825032230
         H           -0.944210980000   -24.502084090000    -5.259686120000     1.007825032230
         H            3.567136740000   -24.502084090000    -5.259686120000     1.007825032230
         C            2.622925760000   -19.169571820000    -7.480806970000    12.000000000000
         C            0.000000000000   -19.169571820000    -7.480806970000    12.000000000000
         C            0.000000000000   -23.090878140000    -5.775725480000    12.000000000000
         C            2.622925760000   -23.090878140000    -5.775725480000    12.000000000000

  Running in c1 symmetry.

  Rotational constants: A =      0.06159  B =      0.00150  C =      0.00149 [cm^-1]
  Rotational constants: A =   1846.41451  B =     45.10175  C =     44.52764 [MHz]
  Nuclear repulsion =  500.949651734531699

  Charge       = 0
  Multiplicity = 1
  Electrons    = 84
  Nalpha       = 42
  Nbeta        = 42

  ==> Algorithm <==

  SCF Algorithm Type is DF.
  DIIS enabled.
  MOM disabled.
  Fractional occupation disabled.
  Guess Type is SAD.
  Energy threshold   = 1.00e-10
  Density threshold  = 1.00e-10
  Integral threshold = 1.00e-12

  ==> Primary Basis <==

  Basis Set: AUG-CC-PVDZ
    Blend: AUG-CC-PVDZ
    Number of shells: 148
    Number of basis functions: 348
    Number of Cartesian functions: 372
    Spherical Harmonics?: true
    Max angular momentum: 2

   => Loading Basis Set <=

    Name: (AUG-CC-PVDZ AUX)
    Role: JKFIT
    Keyword: DF_BASIS_SCF
    atoms 1-2, 11-12  entry N          line   212 file /storage/home/hhive1/csargent30/data/miniconda3/envs/psi4/share/psi4/basis/aug-cc-pvdz-jkfit.gbs
    atoms 3-6, 13-16  entry H          line    70 file /storage/home/hhive1/csargent30/data/miniconda3/envs/psi4/share/psi4/basis/aug-cc-pvdz-jkfit.gbs
    atoms 7-10, 17-20 entry C          line   154 file /storage/home/hhive1/csargent30/data/miniconda3/envs/psi4/share/psi4/basis/aug-cc-pvdz-jkfit.gbs

  ==> Integral Setup <==

  ==> DiskDFJK: Density-Fitted J/K Matrices <==

    J tasked:                  Yes
    K tasked:                  Yes
    wK tasked:                  No
    OpenMP threads:              2
    Integrals threads:           2
    Memory [MiB]:             5006
    Algorithm:                Core
    Integral Cache:           SAVE
    Schwarz Cutoff:          1E-12
    Fitting Condition:       1E-10

   => Auxiliary Basis Set <=

  Basis Set: (AUG-CC-PVDZ AUX)
    Blend: AUG-CC-PVDZ-JKFIT
    Number of shells: 432
    Number of basis functions: 1288
    Number of Cartesian functions: 1492
    Spherical Harmonics?: true
    Max angular momentum: 3

  Minimum eigenvalue in the overlap matrix is 9.1420957347E-06.
  Reciprocal condition number of the overlap matrix is 7.1300725913E-07.
    Using symmetric orthogonalization.

  ==> Pre-Iterations <==

  SCF Guess: Superposition of Atomic Densities via on-the-fly atomic UHF (no occupation information).

   -------------------------
    Irrep   Nso     Nmo
   -------------------------
     A        348     348
   -------------------------
    Total     348     348
   -------------------------

  ==> Iterations <==

                           Total Energy        Delta E     RMS |[F,P]|

   @DF-RHF iter SAD:  -524.65046258176937   -5.24650e+02   0.00000e+00
   @DF-RHF iter   1:  -525.07882727982064   -4.28365e-01   1.58367e-03 DIIS
   @DF-RHF iter   2:  -525.25758706354407   -1.78760e-01   5.80697e-04 DIIS
   @DF-RHF iter   3:  -525.27725177809066   -1.96647e-02   1.81367e-04 DIIS
   @DF-RHF iter   4:  -525.27970120177361   -2.44942e-03   5.34074e-05 DIIS
   @DF-RHF iter   5:  -525.27988045722600   -1.79255e-04   1.06863e-05 DIIS
   @DF-RHF iter   6:  -525.27989356252215   -1.31053e-05   3.46913e-06 DIIS
   @DF-RHF iter   7:  -525.27989546810579   -1.90558e-06   9.05376e-07 DIIS
   @DF-RHF iter   8:  -525.27989561589652   -1.47791e-07   1.40430e-07 DIIS
   @DF-RHF iter   9:  -525.27989561986919   -3.97267e-09   2.76613e-08 DIIS
   @DF-RHF iter  10:  -525.27989562001108   -1.41881e-10   9.31418e-09 DIIS
   @DF-RHF iter  11:  -525.27989562001892   -7.84439e-12   3.08621e-09 DIIS
   @DF-RHF iter  12:  -525.27989562002074   -1.81899e-12   4.55284e-10 DIIS
   @DF-RHF iter  13:  -525.27989562002062    1.13687e-13   1.15606e-10 DIIS
   @DF-RHF iter  14:  -525.27989562002085   -2.27374e-13   3.98532e-11 DIIS
  Energy and wave function converged.


  ==> Post-Iterations <==

    Orbital Energies [Eh]
    ---------------------

    Doubly Occupied:

       1A    -15.598413     2A    -15.598413     3A    -15.598394
       4A    -15.598394     5A    -11.274580     6A    -11.274580
       7A    -11.274535     8A    -11.274535     9A    -11.273316
      10A    -11.273316    11A    -11.273309    12A    -11.273309
      13A     -1.313691    14A     -1.313691    15A     -1.224519
      16A     -1.224519    17A     -1.077145    18A     -1.077145
      19A     -0.923002    20A     -0.923002    21A     -0.919624
      22A     -0.919623    23A     -0.760977    24A     -0.760976
      25A     -0.738738    26A     -0.738738    27A     -0.706555
      28A     -0.706555    29A     -0.648027    30A     -0.648026
      31A     -0.581049    32A     -0.581048    33A     -0.574718
      34A     -0.574718    35A     -0.497451    36A     -0.497451
      37A     -0.434633    38A     -0.434633    39A     -0.416193
      40A     -0.416193    41A     -0.360274    42A     -0.360273

    Virtual:

      43A      0.029843    44A      0.035714    45A      0.038326
      46A      0.045246    47A      0.045343    48A      0.049915
      49A      0.056172    50A      0.061924    51A      0.066436
      52A      0.067218    53A      0.098766    54A      0.099319
      55A      0.100075    56A      0.101043    57A      0.113045
      58A      0.113086    59A      0.114197    60A      0.114937
      61A      0.122637    62A      0.124212    63A      0.125385
      64A      0.126110    65A      0.127968    66A      0.128920
      67A      0.130912    68A      0.132989    69A      0.152971
      70A      0.159245    71A      0.159289    72A      0.159815
      73A      0.161396    74A      0.162779    75A      0.167023
      76A      0.173436    77A      0.174523    78A      0.176327
      79A      0.186222    80A      0.188976    81A      0.203605
      82A      0.203651    83A      0.211919    84A      0.212643
      85A      0.249036    86A      0.252430    87A      0.266980
      88A      0.268102    89A      0.276615    90A      0.278849
      91A      0.286274    92A      0.287868    93A      0.292388
      94A      0.293943    95A      0.296389    96A      0.297689
      97A      0.313972    98A      0.315356    99A      0.319695
     100A      0.321245   101A      0.355126   102A      0.356259
     103A      0.357545   104A      0.357581   105A      0.364331
     106A      0.364358   107A      0.381809   108A      0.383254
     109A      0.398654   110A      0.398854   111A      0.408502
     112A      0.411421   113A      0.424842   114A      0.425927
     115A      0.431502   116A      0.433118   117A      0.437683
     118A      0.442924   119A      0.451544   120A      0.452249
     121A      0.470547   122A      0.472127   123A      0.491736
     124A      0.492004   125A      0.504197   126A      0.505426
     127A      0.514119   128A      0.514999   129A      0.523450
     130A      0.525109   131A      0.527108   132A      0.530724
     133A      0.553975   134A      0.554741   135A      0.569344
     136A      0.572013   137A      0.587171   138A      0.587230
     139A      0.591154   140A      0.591200   141A      0.593305
     142A      0.593875   143A      0.608567   144A      0.608721
     145A      0.643003   146A      0.643404   147A      0.643537
     148A      0.644819   149A      0.684341   150A      0.685122
     151A      0.686632   152A      0.688377   153A      0.689553
     154A      0.689744   155A      0.689891   156A      0.691630
     157A      0.694573   158A      0.694683   159A      0.703647
     160A      0.703876   161A      0.746136   162A      0.746400
     163A      0.754498   164A      0.754510   165A      0.766575
     166A      0.766697   167A      0.780244   168A      0.782738
     169A      0.799335   170A      0.799938   171A      0.802292
     172A      0.802453   173A      0.818509   174A      0.818856
     175A      0.830506   176A      0.831045   177A      0.847039
     178A      0.847590   179A      0.880170   180A      0.880268
     181A      0.886086   182A      0.886103   183A      0.894052
     184A      0.894921   185A      0.928664   186A      0.929409
     187A      0.938833   188A      0.939574   189A      0.948323
     190A      0.950314   191A      0.996233   192A      0.996407
     193A      0.998452   194A      0.998856   195A      1.012629
     196A      1.012808   197A      1.033144   198A      1.033234
     199A      1.050866   200A      1.050889   201A      1.088988
     202A      1.089112   203A      1.100044   204A      1.100190
     205A      1.121748   206A      1.122699   207A      1.123343
     208A      1.124273   209A      1.133936   210A      1.134208
     211A      1.158170   212A      1.158876   213A      1.173184
     214A      1.173296   215A      1.235019   216A      1.235386
     217A      1.238421   218A      1.238626   219A      1.309290
     220A      1.309483   221A      1.330324   222A      1.331639
     223A      1.413625   224A      1.414491   225A      1.451164
     226A      1.451262   227A      1.485840   228A      1.485845
     229A      1.487747   230A      1.487748   231A      1.498653
     232A      1.499406   233A      1.502593   234A      1.502595
     235A      1.517815   236A      1.518039   237A      1.572150
     238A      1.572437   239A      1.573119   240A      1.575180
     241A      1.586614   242A      1.589513   243A      1.634981
     244A      1.636807   245A      1.640218   246A      1.640514
     247A      1.647889   248A      1.648059   249A      1.676150
     250A      1.676283   251A      1.716637   252A      1.716644
     253A      1.746124   254A      1.746494   255A      1.754700
     256A      1.754822   257A      1.782762   258A      1.784622
     259A      1.815379   260A      1.815385   261A      1.892965
     262A      1.893000   263A      1.915632   264A      1.916097
     265A      1.964459   266A      1.964524   267A      1.987296
     268A      1.987391   269A      2.030677   270A      2.031202
     271A      2.091088   272A      2.091446   273A      2.100144
     274A      2.101602   275A      2.142609   276A      2.142624
     277A      2.162985   278A      2.163063   279A      2.189826
     280A      2.190802   281A      2.192880   282A      2.193362
     283A      2.200024   284A      2.200124   285A      2.201941
     286A      2.202349   287A      2.227017   288A      2.227738
     289A      2.312386   290A      2.312486   291A      2.354836
     292A      2.355079   293A      2.430492   294A      2.430778
     295A      2.438339   296A      2.439251   297A      2.518962
     298A      2.519125   299A      2.522008   300A      2.522146
     301A      2.584425   302A      2.584465   303A      2.605872
     304A      2.605990   305A      2.664697   306A      2.665079
     307A      2.674762   308A      2.675517   309A      2.686080
     310A      2.686315   311A      2.712958   312A      2.714672
     313A      2.718201   314A      2.718403   315A      2.843664
     316A      2.843681   317A      2.865365   318A      2.865508
     319A      2.938680   320A      2.939257   321A      3.001418
     322A      3.001691   323A      3.017263   324A      3.017951
     325A      3.031791   326A      3.031918   327A      3.093611
     328A      3.094123   329A      3.218835   330A      3.222489
     331A      3.255576   332A      3.255768   333A      3.284439
     334A      3.284901   335A      3.365766   336A      3.365930
     337A      3.412743   338A      3.413601   339A      3.514553
     340A      3.514641   341A      3.590199   342A      3.590470
     343A      3.627373   344A      3.627500   345A      3.976515
     346A      3.977542   347A      4.253098   348A      4.253209

    Final Occupation by Irrep:
              A
    DOCC [    42 ]

  @DF-RHF Final Energy:  -525.27989562002085

   => Energetics <=

    Nuclear Repulsion Energy =            500.9496517345316988
    One-Electron Energy =               -1702.5825343691647049
    Two-Electron Energy =                 676.3529870146121539
    Total Energy =                       -525.2798956200208522

Computation Completed


Properties will be evaluated at   0.000000,   0.000000,   0.000000 [a0]

Properties computed using the SCF density matrix

  Nuclear Dipole Moment: [e a0]
     X:   110.1629      Y:  -846.2957      Z:  -260.4838

  Electronic Dipole Moment: [e a0]
     X:  -110.1629      Y:   846.2957      Z:   260.4838

  Dipole Moment: [e a0]
     X:     0.0000      Y:    -0.0000      Z:    -0.0000     Total:     0.0000

  Dipole Moment: [D]
     X:     0.0000      Y:    -0.0000      Z:    -0.0000     Total:     0.0000


*** tstop() called on atl1-1-01-015-20-r.pace.gatech.edu at Mon Nov 29 16:10:55 2021
Module time:
	user time   =      27.74 seconds =       0.46 minutes
	system time =       1.02 seconds =       0.02 minutes
	total time  =         15 seconds =       0.25 minutes
Total time:
	user time   =      27.74 seconds =       0.46 minutes
	system time =       1.02 seconds =       0.02 minutes
	total time  =         15 seconds =       0.25 minutes

  //>>>>>>>>>>>>>>>>>>>>>>>>>>>>>>>>>>>//
  //            Monomer A HF           //
  //<<<<<<<<<<<<<<<<<<<<<<<<<<<<<<<<<<<//


*** tstart() called on atl1-1-01-015-20-r.pace.gatech.edu
*** at Mon Nov 29 16:10:55 2021

   => Loading Basis Set <=

    Name: AUG-CC-PVDZ
    Role: ORBITAL
    Keyword: BASIS
    atoms 1-2, 11-12  entry N          line   218 file /storage/home/hhive1/csargent30/data/miniconda3/envs/psi4/share/psi4/basis/aug-cc-pvdz.gbs
    atoms 3-6, 13-16  entry H          line    40 file /storage/home/hhive1/csargent30/data/miniconda3/envs/psi4/share/psi4/basis/aug-cc-pvdz.gbs
    atoms 7-10, 17-20 entry C          line   182 file /storage/home/hhive1/csargent30/data/miniconda3/envs/psi4/share/psi4/basis/aug-cc-pvdz.gbs


         ---------------------------------------------------------
                                   SCF
               by Justin Turney, Rob Parrish, Andy Simmonett
                          and Daniel G. A. Smith
                              RHF Reference
                        2 Threads,   6675 MiB Core
         ---------------------------------------------------------

  ==> Geometry <==

    Molecular point group: c1
    Full point group: C1

    Geometry (in Bohr), charge = 0, multiplicity = 1:

       Center              X                  Y                   Z               Mass
    ------------   -----------------  -----------------  -----------------  -----------------
         N           -1.330847580000     0.980326580000     0.426270370000    14.003074004430
         N            3.953773330000     0.980326580000     0.426270370000    14.003074004430
         H            3.567136740000     4.352185690000    -0.942309730000     1.007825032230
         H           -0.944210980000     4.352185690000    -0.942309730000     1.007825032230
         H           -0.944210980000    -2.391532530000     1.794850470000     1.007825032230
         H            3.567136740000    -2.391532530000     1.794850470000     1.007825032230
         C            2.622925760000     2.940979740000    -0.426270370000    12.000000000000
         C            0.000000000000     2.940979740000    -0.426270370000    12.000000000000
         C            0.000000000000    -0.980326580000     1.278811120000    12.000000000000
         C            2.622925760000    -0.980326580000     1.278811120000    12.000000000000
      Gh(N)          -1.330847580000   -21.130224980000    -6.628266220000    14.003074004430
      Gh(N)           3.953773330000   -21.130224980000    -6.628266220000    14.003074004430
      Gh(H)           3.567136740000   -17.758365870000    -7.996846330000     1.007825032230
      Gh(H)          -0.944210980000   -17.758365870000    -7.996846330000     1.007825032230
      Gh(H)          -0.944210980000   -24.502084090000    -5.259686120000     1.007825032230
      Gh(H)           3.567136740000   -24.502084090000    -5.259686120000     1.007825032230
      Gh(C)           2.622925760000   -19.169571820000    -7.480806970000    12.000000000000
      Gh(C)           0.000000000000   -19.169571820000    -7.480806970000    12.000000000000
      Gh(C)           0.000000000000   -23.090878140000    -5.775725480000    12.000000000000
      Gh(C)           2.622925760000   -23.090878140000    -5.775725480000    12.000000000000

  Running in c1 symmetry.

  Rotational constants: A =      0.06159  B =      0.00150  C =      0.00149 [cm^-1]
  Rotational constants: A =   1846.41451  B =     45.10175  C =     44.52764 [MHz]
  Nuclear repulsion =  212.551731110485349

  Charge       = 0
  Multiplicity = 1
  Electrons    = 42
  Nalpha       = 21
  Nbeta        = 21

  ==> Algorithm <==

  SCF Algorithm Type is DF.
  DIIS enabled.
  MOM disabled.
  Fractional occupation disabled.
  Guess Type is SAD.
  Energy threshold   = 1.00e-10
  Density threshold  = 1.00e-10
  Integral threshold = 1.00e-12

  ==> Primary Basis <==

  Basis Set: AUG-CC-PVDZ
    Blend: AUG-CC-PVDZ
    Number of shells: 148
    Number of basis functions: 348
    Number of Cartesian functions: 372
    Spherical Harmonics?: true
    Max angular momentum: 2

   => Loading Basis Set <=

    Name: (AUG-CC-PVDZ AUX)
    Role: JKFIT
    Keyword: DF_BASIS_SCF
    atoms 1-2, 11-12  entry N          line   212 file /storage/home/hhive1/csargent30/data/miniconda3/envs/psi4/share/psi4/basis/aug-cc-pvdz-jkfit.gbs
    atoms 3-6, 13-16  entry H          line    70 file /storage/home/hhive1/csargent30/data/miniconda3/envs/psi4/share/psi4/basis/aug-cc-pvdz-jkfit.gbs
    atoms 7-10, 17-20 entry C          line   154 file /storage/home/hhive1/csargent30/data/miniconda3/envs/psi4/share/psi4/basis/aug-cc-pvdz-jkfit.gbs

  ==> Integral Setup <==

  ==> DiskDFJK: Density-Fitted J/K Matrices <==

    J tasked:                  Yes
    K tasked:                  Yes
    wK tasked:                  No
    OpenMP threads:              2
    Integrals threads:           2
    Memory [MiB]:             5006
    Algorithm:                Core
    Integral Cache:           LOAD
    Schwarz Cutoff:          1E-12
    Fitting Condition:       1E-10

   => Auxiliary Basis Set <=

  Basis Set: (AUG-CC-PVDZ AUX)
    Blend: AUG-CC-PVDZ-JKFIT
    Number of shells: 432
    Number of basis functions: 1288
    Number of Cartesian functions: 1492
    Spherical Harmonics?: true
    Max angular momentum: 3

  Minimum eigenvalue in the overlap matrix is 9.1420957347E-06.
  Reciprocal condition number of the overlap matrix is 7.1300725913E-07.
    Using symmetric orthogonalization.

  ==> Pre-Iterations <==

  SCF Guess: Superposition of Atomic Densities via on-the-fly atomic UHF (no occupation information).

   -------------------------
    Irrep   Nso     Nmo
   -------------------------
     A        348     348
   -------------------------
    Total     348     348
   -------------------------

  ==> Iterations <==

                           Total Energy        Delta E     RMS |[F,P]|

   @DF-RHF iter SAD:  -262.32523126701159   -2.62325e+02   0.00000e+00
   @DF-RHF iter   1:  -262.53940901397209   -2.14178e-01   1.11986e-03 DIIS
   @DF-RHF iter   2:  -262.62878965507690   -8.93806e-02   4.10665e-04 DIIS
   @DF-RHF iter   3:  -262.63862423572937   -9.83458e-03   1.28248e-04 DIIS
   @DF-RHF iter   4:  -262.63984898834389   -1.22475e-03   3.77600e-05 DIIS
   @DF-RHF iter   5:  -262.63993858895009   -8.96006e-05   7.55560e-06 DIIS
   @DF-RHF iter   6:  -262.63994513921648   -6.55027e-06   2.45265e-06 DIIS
   @DF-RHF iter   7:  -262.63994609159317   -9.52377e-07   6.40131e-07 DIIS
   @DF-RHF iter   8:  -262.63994616548200   -7.38888e-08   9.91693e-08 DIIS
   @DF-RHF iter   9:  -262.63994616746731   -1.98531e-09   1.88228e-08 DIIS
   @DF-RHF iter  10:  -262.63994616753860   -7.12816e-11   3.19167e-09 DIIS
   @DF-RHF iter  11:  -262.63994616754121   -2.61480e-12   5.23659e-10 DIIS
   @DF-RHF iter  12:  -262.63994616754047    7.38964e-13   1.05988e-10 DIIS
   @DF-RHF iter  13:  -262.63994616754042    5.68434e-14   4.80681e-11 DIIS
  Energy and wave function converged.


  ==> Post-Iterations <==

    Orbital Energies [Eh]
    ---------------------

    Doubly Occupied:

       1A    -15.598072     2A    -15.598053     3A    -11.274238
       4A    -11.274194     5A    -11.272974     6A    -11.272969
       7A     -1.313347     8A     -1.224175     9A     -1.076803
      10A     -0.922662    11A     -0.919282    12A     -0.760637
      13A     -0.738402    14A     -0.706214    15A     -0.647687
      16A     -0.580711    17A     -0.574369    18A     -0.497113
      19A     -0.434288    20A     -0.415855    21A     -0.359924

    Virtual:

      22A      0.021424    23A      0.032984    24A      0.037854
      25A      0.040169    26A      0.043783    27A      0.048243
      28A      0.056240    29A      0.061752    30A      0.067018
      31A      0.079213    32A      0.084871    33A      0.099090
      34A      0.100971    35A      0.103618    36A      0.107735
      37A      0.108469    38A      0.113693    39A      0.115599
      40A      0.121401    41A      0.123828    42A      0.124425
      43A      0.126283    44A      0.128557    45A      0.130135
      46A      0.133058    47A      0.135750    48A      0.151778
      49A      0.152587    50A      0.157102    51A      0.159446
      52A      0.162485    53A      0.163758    54A      0.166442
      55A      0.175476    56A      0.176732    57A      0.186963
      58A      0.198579    59A      0.203664    60A      0.205147
      61A      0.206775    62A      0.212632    63A      0.222781
      64A      0.233560    65A      0.239091    66A      0.251472
      67A      0.255128    68A      0.267861    69A      0.270372
      70A      0.278796    71A      0.288371    72A      0.293326
      73A      0.296818    74A      0.303068    75A      0.314848
      76A      0.320342    77A      0.320447    78A      0.328307
      79A      0.331335    80A      0.344265    81A      0.355904
      82A      0.357940    83A      0.364692    84A      0.380215
      85A      0.382966    86A      0.385165    87A      0.398982
      88A      0.401041    89A      0.410215    90A      0.418898
      91A      0.424246    92A      0.425654    93A      0.434257
      94A      0.439713    95A      0.441524    96A      0.452170
      97A      0.460250    98A      0.460731    99A      0.471463
     100A      0.476259   101A      0.479540   102A      0.492191
     103A      0.505035   104A      0.507892   105A      0.514992
     106A      0.523662   107A      0.524598   108A      0.529143
     109A      0.535945   110A      0.554689   111A      0.557555
     112A      0.561143   113A      0.564181   114A      0.571048
     115A      0.582261   116A      0.587540   117A      0.591525
     118A      0.593900   119A      0.595655   120A      0.608947
     121A      0.614741   122A      0.620043   123A      0.636236
     124A      0.643519   125A      0.644611   126A      0.648943
     127A      0.651069   128A      0.679065   129A      0.684430
     130A      0.685996   131A      0.688202   132A      0.690001
     133A      0.690955   134A      0.694872   135A      0.704084
     136A      0.719527   137A      0.727973   138A      0.746508
     139A      0.747035   140A      0.754869   141A      0.766970
     142A      0.775364   143A      0.781807   144A      0.793262
     145A      0.799924   146A      0.802721   147A      0.810698
     148A      0.811660   149A      0.819045   150A      0.824417
     151A      0.831136   152A      0.847529   153A      0.847754
     154A      0.848902   155A      0.868251   156A      0.880557
     157A      0.886425   158A      0.887832   159A      0.894851
     160A      0.905751   161A      0.929144   162A      0.929382
     163A      0.939543   164A      0.947235   165A      0.949788
     166A      0.970364   167A      0.976510   168A      0.986274
     169A      0.996659   170A      0.998983   171A      1.013057
     172A      1.031999   173A      1.033568   174A      1.046505
     175A      1.051214   176A      1.076007   177A      1.089381
     178A      1.089883   179A      1.100450   180A      1.122555
     181A      1.124052   182A      1.130659   183A      1.134408
     184A      1.139878   185A      1.158825   186A      1.168277
     187A      1.170283   188A      1.173585   189A      1.192116
     190A      1.193058   191A      1.200077   192A      1.221942
     193A      1.235529   194A      1.238857   195A      1.250686
     196A      1.307124   197A      1.309706   198A      1.317947
     199A      1.326003   200A      1.329195   201A      1.331409
     202A      1.346394   203A      1.388834   204A      1.414405
     205A      1.447982   206A      1.451553   207A      1.455041
     208A      1.479057   209A      1.486176   210A      1.486833
     211A      1.488083   212A      1.499387   213A      1.502945
     214A      1.518258   215A      1.572722   216A      1.574558
     217A      1.588331   218A      1.636243   219A      1.640634
     220A      1.648305   221A      1.658906   222A      1.676563
     223A      1.697646   224A      1.716993   225A      1.746652
     226A      1.755108   227A      1.784000   228A      1.815728
     229A      1.893326   230A      1.916195   231A      1.964830
     232A      1.987686   233A      2.031264   234A      2.069895
     235A      2.091595   236A      2.101223   237A      2.102369
     238A      2.119162   239A      2.142954   240A      2.156273
     241A      2.158845   242A      2.163362   243A      2.190578
     244A      2.193455   245A      2.194565   246A      2.200410
     247A      2.202465   248A      2.227710   249A      2.234345
     250A      2.241238   251A      2.249239   252A      2.309603
     253A      2.312770   254A      2.319443   255A      2.355299
     256A      2.384396   257A      2.418874   258A      2.430960
     259A      2.435009   260A      2.438067   261A      2.439164
     262A      2.472299   263A      2.486310   264A      2.497918
     265A      2.519383   266A      2.522416   267A      2.524744
     268A      2.545596   269A      2.568354   270A      2.584775
     271A      2.592121   272A      2.606270   273A      2.625580
     274A      2.665230   275A      2.675505   276A      2.686523
     277A      2.714177   278A      2.716576   279A      2.718620
     280A      2.726224   281A      2.767573   282A      2.844016
     283A      2.865778   284A      2.903767   285A      2.939311
     286A      2.946852   287A      2.955427   288A      2.972918
     289A      3.001898   290A      3.017949   291A      3.032194
     292A      3.057918   293A      3.065058   294A      3.094199
     295A      3.113651   296A      3.220995   297A      3.245325
     298A      3.256000   299A      3.285008   300A      3.289257
     301A      3.321540   302A      3.337321   303A      3.340124
     304A      3.348242   305A      3.351067   306A      3.366191
     307A      3.412213   308A      3.413505   309A      3.470428
     310A      3.501587   311A      3.514932   312A      3.521065
     313A      3.590672   314A      3.604179   315A      3.605372
     316A      3.627778   317A      3.700120   318A      3.818716
     319A      3.830298   320A      3.940595   321A      3.968764
     322A      3.977356   323A      4.011165   324A      4.194439
     325A      4.242492   326A      4.253505   327A      4.441681
     328A      4.546436   329A      4.578885   330A      4.867261
     331A      4.975809   332A      5.057584   333A      5.261493
     334A      5.316151   335A      5.629942   336A      5.690939
     337A      5.826766   338A      5.952249   339A      6.283489
     340A      6.306542   341A      6.453382   342A      6.630818
     343A     18.125323   344A     18.207601   345A     19.017525
     346A     19.342653   347A     25.286669   348A     25.374388

    Final Occupation by Irrep:
              A
    DOCC [    21 ]

  @DF-RHF Final Energy:  -262.63994616754042

   => Energetics <=

    Nuclear Repulsion Energy =            212.5517311104853491
    One-Electron Energy =                -775.4594155500900570
    Two-Electron Energy =                 300.2677382720643209
    Total Energy =                       -262.6399461675404154

Computation Completed


Properties will be evaluated at   0.000000,   0.000000,   0.000000 [a0]

Properties computed using the SCF density matrix

  Nuclear Dipole Moment: [e a0]
     X:    55.0814      Y:    41.1737      Z:    17.9034

  Electronic Dipole Moment: [e a0]
     X:   -55.0814      Y:   -41.1737      Z:   -17.9034

  Dipole Moment: [e a0]
     X:     0.0000      Y:    -0.0000      Z:    -0.0000     Total:     0.0000

  Dipole Moment: [D]
     X:     0.0000      Y:    -0.0000      Z:    -0.0000     Total:     0.0000


*** tstop() called on atl1-1-01-015-20-r.pace.gatech.edu at Mon Nov 29 16:11:05 2021
Module time:
	user time   =      17.91 seconds =       0.30 minutes
	system time =       0.55 seconds =       0.01 minutes
	total time  =         10 seconds =       0.17 minutes
Total time:
	user time   =      45.66 seconds =       0.76 minutes
	system time =       1.57 seconds =       0.03 minutes
	total time  =         25 seconds =       0.42 minutes

  //>>>>>>>>>>>>>>>>>>>>>>>>>>>>>>>>>>>//
  //            Monomer B HF           //
  //<<<<<<<<<<<<<<<<<<<<<<<<<<<<<<<<<<<//


*** tstart() called on atl1-1-01-015-20-r.pace.gatech.edu
*** at Mon Nov 29 16:11:05 2021

   => Loading Basis Set <=

    Name: AUG-CC-PVDZ
    Role: ORBITAL
    Keyword: BASIS
    atoms 1-2, 11-12  entry N          line   218 file /storage/home/hhive1/csargent30/data/miniconda3/envs/psi4/share/psi4/basis/aug-cc-pvdz.gbs
    atoms 3-6, 13-16  entry H          line    40 file /storage/home/hhive1/csargent30/data/miniconda3/envs/psi4/share/psi4/basis/aug-cc-pvdz.gbs
    atoms 7-10, 17-20 entry C          line   182 file /storage/home/hhive1/csargent30/data/miniconda3/envs/psi4/share/psi4/basis/aug-cc-pvdz.gbs


         ---------------------------------------------------------
                                   SCF
               by Justin Turney, Rob Parrish, Andy Simmonett
                          and Daniel G. A. Smith
                              RHF Reference
                        2 Threads,   6675 MiB Core
         ---------------------------------------------------------

  ==> Geometry <==

    Molecular point group: c1
    Full point group: C1

    Geometry (in Bohr), charge = 0, multiplicity = 1:

       Center              X                  Y                   Z               Mass
    ------------   -----------------  -----------------  -----------------  -----------------
      Gh(N)          -1.330847580000     0.980326580000     0.426270370000    14.003074004430
      Gh(N)           3.953773330000     0.980326580000     0.426270370000    14.003074004430
      Gh(H)           3.567136740000     4.352185690000    -0.942309730000     1.007825032230
      Gh(H)          -0.944210980000     4.352185690000    -0.942309730000     1.007825032230
      Gh(H)          -0.944210980000    -2.391532530000     1.794850470000     1.007825032230
      Gh(H)           3.567136740000    -2.391532530000     1.794850470000     1.007825032230
      Gh(C)           2.622925760000     2.940979740000    -0.426270370000    12.000000000000
      Gh(C)           0.000000000000     2.940979740000    -0.426270370000    12.000000000000
      Gh(C)           0.000000000000    -0.980326580000     1.278811120000    12.000000000000
      Gh(C)           2.622925760000    -0.980326580000     1.278811120000    12.000000000000
         N           -1.330847580000   -21.130224980000    -6.628266220000    14.003074004430
         N            3.953773330000   -21.130224980000    -6.628266220000    14.003074004430
         H            3.567136740000   -17.758365870000    -7.996846330000     1.007825032230
         H           -0.944210980000   -17.758365870000    -7.996846330000     1.007825032230
         H           -0.944210980000   -24.502084090000    -5.259686120000     1.007825032230
         H            3.567136740000   -24.502084090000    -5.259686120000     1.007825032230
         C            2.622925760000   -19.169571820000    -7.480806970000    12.000000000000
         C            0.000000000000   -19.169571820000    -7.480806970000    12.000000000000
         C            0.000000000000   -23.090878140000    -5.775725480000    12.000000000000
         C            2.622925760000   -23.090878140000    -5.775725480000    12.000000000000

  Running in c1 symmetry.

  Rotational constants: A =      0.06159  B =      0.00150  C =      0.00149 [cm^-1]
  Rotational constants: A =   1846.41451  B =     45.10175  C =     44.52764 [MHz]
  Nuclear repulsion =  212.551731091174616

  Charge       = 0
  Multiplicity = 1
  Electrons    = 42
  Nalpha       = 21
  Nbeta        = 21

  ==> Algorithm <==

  SCF Algorithm Type is DF.
  DIIS enabled.
  MOM disabled.
  Fractional occupation disabled.
  Guess Type is SAD.
  Energy threshold   = 1.00e-10
  Density threshold  = 1.00e-10
  Integral threshold = 1.00e-12

  ==> Primary Basis <==

  Basis Set: AUG-CC-PVDZ
    Blend: AUG-CC-PVDZ
    Number of shells: 148
    Number of basis functions: 348
    Number of Cartesian functions: 372
    Spherical Harmonics?: true
    Max angular momentum: 2

   => Loading Basis Set <=

    Name: (AUG-CC-PVDZ AUX)
    Role: JKFIT
    Keyword: DF_BASIS_SCF
    atoms 1-2, 11-12  entry N          line   212 file /storage/home/hhive1/csargent30/data/miniconda3/envs/psi4/share/psi4/basis/aug-cc-pvdz-jkfit.gbs
    atoms 3-6, 13-16  entry H          line    70 file /storage/home/hhive1/csargent30/data/miniconda3/envs/psi4/share/psi4/basis/aug-cc-pvdz-jkfit.gbs
    atoms 7-10, 17-20 entry C          line   154 file /storage/home/hhive1/csargent30/data/miniconda3/envs/psi4/share/psi4/basis/aug-cc-pvdz-jkfit.gbs

  ==> Integral Setup <==

  ==> DiskDFJK: Density-Fitted J/K Matrices <==

    J tasked:                  Yes
    K tasked:                  Yes
    wK tasked:                  No
    OpenMP threads:              2
    Integrals threads:           2
    Memory [MiB]:             5006
    Algorithm:                Core
    Integral Cache:           LOAD
    Schwarz Cutoff:          1E-12
    Fitting Condition:       1E-10

   => Auxiliary Basis Set <=

  Basis Set: (AUG-CC-PVDZ AUX)
    Blend: AUG-CC-PVDZ-JKFIT
    Number of shells: 432
    Number of basis functions: 1288
    Number of Cartesian functions: 1492
    Spherical Harmonics?: true
    Max angular momentum: 3

  Minimum eigenvalue in the overlap matrix is 9.1420957347E-06.
  Reciprocal condition number of the overlap matrix is 7.1300725913E-07.
    Using symmetric orthogonalization.

  ==> Pre-Iterations <==

  SCF Guess: Superposition of Atomic Densities via on-the-fly atomic UHF (no occupation information).

   -------------------------
    Irrep   Nso     Nmo
   -------------------------
     A        348     348
   -------------------------
    Total     348     348
   -------------------------

  ==> Iterations <==

                           Total Energy        Delta E     RMS |[F,P]|

   @DF-RHF iter SAD:  -262.32523126814789   -2.62325e+02   0.00000e+00
   @DF-RHF iter   1:  -262.53940901687895   -2.14178e-01   1.11986e-03 DIIS
   @DF-RHF iter   2:  -262.62878965799018   -8.93806e-02   4.10665e-04 DIIS
   @DF-RHF iter   3:  -262.63862423866124   -9.83458e-03   1.28248e-04 DIIS
   @DF-RHF iter   4:  -262.63984899127672   -1.22475e-03   3.77600e-05 DIIS
   @DF-RHF iter   5:  -262.63993859188241   -8.96006e-05   7.55560e-06 DIIS
   @DF-RHF iter   6:  -262.63994514214903   -6.55027e-06   2.45265e-06 DIIS
   @DF-RHF iter   7:  -262.63994609452595   -9.52377e-07   6.40131e-07 DIIS
   @DF-RHF iter   8:  -262.63994616841421   -7.38883e-08   9.91693e-08 DIIS
   @DF-RHF iter   9:  -262.63994617039975   -1.98554e-09   1.88228e-08 DIIS
   @DF-RHF iter  10:  -262.63994617047103   -7.12816e-11   3.19167e-09 DIIS
   @DF-RHF iter  11:  -262.63994617047302   -1.98952e-12   5.23657e-10 DIIS
   @DF-RHF iter  12:  -262.63994617047297    5.68434e-14   1.05976e-10 DIIS
   @DF-RHF iter  13:  -262.63994617047342   -4.54747e-13   4.80494e-11 DIIS
  Energy and wave function converged.


  ==> Post-Iterations <==

    Orbital Energies [Eh]
    ---------------------

    Doubly Occupied:

       1A    -15.598072     2A    -15.598053     3A    -11.274238
       4A    -11.274194     5A    -11.272974     6A    -11.272969
       7A     -1.313347     8A     -1.224175     9A     -1.076803
      10A     -0.922662    11A     -0.919282    12A     -0.760637
      13A     -0.738402    14A     -0.706214    15A     -0.647687
      16A     -0.580711    17A     -0.574369    18A     -0.497113
      19A     -0.434288    20A     -0.415855    21A     -0.359924

    Virtual:

      22A      0.021424    23A      0.032984    24A      0.037854
      25A      0.040169    26A      0.043783    27A      0.048243
      28A      0.056240    29A      0.061752    30A      0.067018
      31A      0.079213    32A      0.084871    33A      0.099090
      34A      0.100971    35A      0.103618    36A      0.107735
      37A      0.108469    38A      0.113693    39A      0.115599
      40A      0.121401    41A      0.123828    42A      0.124425
      43A      0.126283    44A      0.128557    45A      0.130135
      46A      0.133058    47A      0.135750    48A      0.151778
      49A      0.152587    50A      0.157102    51A      0.159446
      52A      0.162485    53A      0.163758    54A      0.166442
      55A      0.175476    56A      0.176732    57A      0.186963
      58A      0.198579    59A      0.203664    60A      0.205147
      61A      0.206775    62A      0.212632    63A      0.222781
      64A      0.233560    65A      0.239091    66A      0.251472
      67A      0.255128    68A      0.267861    69A      0.270372
      70A      0.278796    71A      0.288371    72A      0.293326
      73A      0.296818    74A      0.303068    75A      0.314848
      76A      0.320342    77A      0.320447    78A      0.328307
      79A      0.331335    80A      0.344265    81A      0.355904
      82A      0.357940    83A      0.364692    84A      0.380215
      85A      0.382966    86A      0.385165    87A      0.398982
      88A      0.401041    89A      0.410215    90A      0.418898
      91A      0.424246    92A      0.425654    93A      0.434257
      94A      0.439713    95A      0.441524    96A      0.452170
      97A      0.460250    98A      0.460731    99A      0.471464
     100A      0.476259   101A      0.479540   102A      0.492191
     103A      0.505035   104A      0.507892   105A      0.514992
     106A      0.523662   107A      0.524598   108A      0.529143
     109A      0.535945   110A      0.554689   111A      0.557555
     112A      0.561143   113A      0.564181   114A      0.571048
     115A      0.582261   116A      0.587540   117A      0.591525
     118A      0.593900   119A      0.595655   120A      0.608947
     121A      0.614741   122A      0.620043   123A      0.636236
     124A      0.643519   125A      0.644611   126A      0.648943
     127A      0.651069   128A      0.679065   129A      0.684430
     130A      0.685996   131A      0.688202   132A      0.690001
     133A      0.690955   134A      0.694872   135A      0.704084
     136A      0.719527   137A      0.727973   138A      0.746508
     139A      0.747035   140A      0.754869   141A      0.766970
     142A      0.775364   143A      0.781807   144A      0.793262
     145A      0.799924   146A      0.802721   147A      0.810698
     148A      0.811660   149A      0.819045   150A      0.824417
     151A      0.831136   152A      0.847529   153A      0.847754
     154A      0.848902   155A      0.868251   156A      0.880557
     157A      0.886425   158A      0.887832   159A      0.894851
     160A      0.905751   161A      0.929144   162A      0.929382
     163A      0.939544   164A      0.947235   165A      0.949788
     166A      0.970364   167A      0.976510   168A      0.986274
     169A      0.996659   170A      0.998983   171A      1.013057
     172A      1.031999   173A      1.033568   174A      1.046505
     175A      1.051214   176A      1.076007   177A      1.089381
     178A      1.089883   179A      1.100450   180A      1.122555
     181A      1.124052   182A      1.130659   183A      1.134408
     184A      1.139878   185A      1.158825   186A      1.168277
     187A      1.170283   188A      1.173585   189A      1.192116
     190A      1.193058   191A      1.200077   192A      1.221942
     193A      1.235529   194A      1.238857   195A      1.250686
     196A      1.307124   197A      1.309706   198A      1.317947
     199A      1.326003   200A      1.329195   201A      1.331409
     202A      1.346394   203A      1.388834   204A      1.414405
     205A      1.447982   206A      1.451553   207A      1.455041
     208A      1.479057   209A      1.486176   210A      1.486833
     211A      1.488083   212A      1.499387   213A      1.502945
     214A      1.518258   215A      1.572722   216A      1.574558
     217A      1.588331   218A      1.636243   219A      1.640634
     220A      1.648305   221A      1.658906   222A      1.676563
     223A      1.697646   224A      1.716993   225A      1.746652
     226A      1.755108   227A      1.784000   228A      1.815728
     229A      1.893326   230A      1.916195   231A      1.964830
     232A      1.987686   233A      2.031264   234A      2.069895
     235A      2.091595   236A      2.101223   237A      2.102369
     238A      2.119162   239A      2.142954   240A      2.156273
     241A      2.158845   242A      2.163362   243A      2.190578
     244A      2.193455   245A      2.194565   246A      2.200410
     247A      2.202465   248A      2.227710   249A      2.234345
     250A      2.241238   251A      2.249239   252A      2.309603
     253A      2.312770   254A      2.319443   255A      2.355299
     256A      2.384396   257A      2.418874   258A      2.430960
     259A      2.435009   260A      2.438067   261A      2.439164
     262A      2.472299   263A      2.486310   264A      2.497918
     265A      2.519383   266A      2.522416   267A      2.524744
     268A      2.545596   269A      2.568354   270A      2.584775
     271A      2.592121   272A      2.606270   273A      2.625580
     274A      2.665230   275A      2.675505   276A      2.686523
     277A      2.714177   278A      2.716576   279A      2.718620
     280A      2.726224   281A      2.767573   282A      2.844016
     283A      2.865778   284A      2.903767   285A      2.939311
     286A      2.946852   287A      2.955427   288A      2.972918
     289A      3.001898   290A      3.017949   291A      3.032194
     292A      3.057918   293A      3.065058   294A      3.094199
     295A      3.113651   296A      3.220995   297A      3.245325
     298A      3.256000   299A      3.285008   300A      3.289257
     301A      3.321540   302A      3.337321   303A      3.340124
     304A      3.348242   305A      3.351067   306A      3.366191
     307A      3.412213   308A      3.413505   309A      3.470428
     310A      3.501587   311A      3.514932   312A      3.521065
     313A      3.590672   314A      3.604179   315A      3.605372
     316A      3.627778   317A      3.700120   318A      3.818716
     319A      3.830298   320A      3.940595   321A      3.968764
     322A      3.977356   323A      4.011165   324A      4.194439
     325A      4.242492   326A      4.253505   327A      4.441681
     328A      4.546436   329A      4.578885   330A      4.867261
     331A      4.975809   332A      5.057584   333A      5.261493
     334A      5.316151   335A      5.629942   336A      5.690939
     337A      5.826767   338A      5.952249   339A      6.283489
     340A      6.306542   341A      6.453382   342A      6.630818
     343A     18.125323   344A     18.207601   345A     19.017525
     346A     19.342653   347A     25.286669   348A     25.374388

    Final Occupation by Irrep:
              A
    DOCC [    21 ]

  @DF-RHF Final Energy:  -262.63994617047342

   => Energetics <=

    Nuclear Repulsion Energy =            212.5517310911746165
    One-Electron Energy =                -775.4594155156274837
    Two-Electron Energy =                 300.2677382539794735
    Total Energy =                       -262.6399461704734222

Computation Completed


Properties will be evaluated at   0.000000,   0.000000,   0.000000 [a0]

Properties computed using the SCF density matrix

  Nuclear Dipole Moment: [e a0]
     X:    55.0814      Y:  -887.4694      Z:  -278.3872

  Electronic Dipole Moment: [e a0]
     X:   -55.0814      Y:   887.4695      Z:   278.3872

  Dipole Moment: [e a0]
     X:     0.0000      Y:     0.0000      Z:     0.0000     Total:     0.0000

  Dipole Moment: [D]
     X:     0.0000      Y:     0.0000      Z:     0.0000     Total:     0.0000


*** tstop() called on atl1-1-01-015-20-r.pace.gatech.edu at Mon Nov 29 16:11:15 2021
Module time:
	user time   =      18.05 seconds =       0.30 minutes
	system time =       0.52 seconds =       0.01 minutes
	total time  =         10 seconds =       0.17 minutes
Total time:
	user time   =      63.72 seconds =       1.06 minutes
	system time =       2.09 seconds =       0.03 minutes
	total time  =         35 seconds =       0.58 minutes
  Constructing Basis Sets for SAPT...

   => Loading Basis Set <=

    Name: (AUG-CC-PVDZ AUX)
    Role: RIFIT
    Keyword: DF_BASIS_SAPT
    atoms 1-2, 11-12  entry N          line   158 file /storage/home/hhive1/csargent30/data/miniconda3/envs/psi4/share/psi4/basis/aug-cc-pvdz-ri.gbs
    atoms 3-6, 13-16  entry H          line    30 file /storage/home/hhive1/csargent30/data/miniconda3/envs/psi4/share/psi4/basis/aug-cc-pvdz-ri.gbs
    atoms 7-10, 17-20 entry C          line   112 file /storage/home/hhive1/csargent30/data/miniconda3/envs/psi4/share/psi4/basis/aug-cc-pvdz-ri.gbs


  //>>>>>>>>>>>>>>>>>>>>>>>>>>>>>>>>>>>//
  //               SAPT0               //
  //<<<<<<<<<<<<<<<<<<<<<<<<<<<<<<<<<<<//


*** tstart() called on atl1-1-01-015-20-r.pace.gatech.edu
*** at Mon Nov 29 16:11:15 2021

        SAPT0
    Ed Hohenstein
     6 June 2009

      Orbital Information
  --------------------------
    NSO        =       348
    NMO        =       348
    NRI        =      1048
    NOCC A     =        21
    NOCC B     =        21
    FOCC A     =         6
    FOCC B     =         6
    NVIR A     =       327
    NVIR B     =       327

    Elst10,r            =    -0.000003142711 [Eh]
    Exch10              =     0.000000000049 [Eh]
    Exch10 (S^2)        =     0.000000000049 [Eh]

    Iter     Energy [mEh]          dE [mEh]         Residual      Time [s]
       1      -0.00007216       0.000072157       0.079555708             0
       2      -0.00006412      -0.000008038       0.014848692             1
       3      -0.00006906       0.000004945       0.006507512             1
       4      -0.00006975       0.000000687       0.001643767             1
       5      -0.00006949      -0.000000262       0.000731044             2
       6      -0.00006952       0.000000030       0.000301835             2
       7      -0.00006953       0.000000011       0.000094075             2
       8      -0.00006953      -0.000000000       0.000026964             3
       9      -0.00006953      -0.000000001       0.000009068             3
      10      -0.00006953      -0.000000000       0.000002657             3
      11      -0.00006953       0.000000000       0.000000656             4

    CHF Iterations converged


    Iter     Energy [mEh]          dE [mEh]         Residual      Time [s]
       1      -0.00007216       0.000072157       0.079555709             0
       2      -0.00006412      -0.000008038       0.014848692             1
       3      -0.00006906       0.000004945       0.006507512             1
       4      -0.00006975       0.000000687       0.001643767             1
       5      -0.00006949      -0.000000262       0.000731044             2
       6      -0.00006952       0.000000030       0.000301835             2
       7      -0.00006953       0.000000011       0.000094075             2
       8      -0.00006953      -0.000000000       0.000026964             3
       9      -0.00006953      -0.000000001       0.000009068             3
      10      -0.00006953      -0.000000000       0.000002657             3
      11      -0.00006953       0.000000000       0.000000656             4

    CHF Iterations converged

    Ind20,r (A<-B)      =    -0.000000069528 [Eh]
    Ind20,r (B<-A)      =    -0.000000069528 [Eh]
    Ind20,r             =    -0.000000139057 [Eh]
    Exch-Ind20,r (A<-B) =     0.000000000593 [Eh]
    Exch-Ind20,r (B<-A) =     0.000000000593 [Eh]
    Exch-Ind20,r        =     0.000000001186 [Eh]
    Disp20              =    -0.000011372035 [Eh]
    Disp20 (SS)         =    -0.000005686018 [Eh]
    Disp20 (OS)         =    -0.000005686018 [Eh]
    Exch-Disp20         =     0.000000000177 [Eh]
    Exch-Disp20 (SS)    =     0.000000000148 [Eh]
    Exch-Disp20 (OS)    =     0.000000000029 [Eh]

    SAPT Results
  --------------------------------------------------------------------------------------------------------
    Electrostatics                 -0.00314271 [mEh]      -0.00197208 [kcal/mol]      -0.00825119 [kJ/mol]
      Elst10,r                     -0.00314271 [mEh]      -0.00197208 [kcal/mol]      -0.00825119 [kJ/mol]

    Exchange                        0.00000005 [mEh]       0.00000003 [kcal/mol]       0.00000013 [kJ/mol]
      Exch10                        0.00000005 [mEh]       0.00000003 [kcal/mol]       0.00000013 [kJ/mol]
      Exch10(S^2)                   0.00000005 [mEh]       0.00000003 [kcal/mol]       0.00000013 [kJ/mol]

    Induction                      -0.00013934 [mEh]      -0.00008744 [kcal/mol]      -0.00036585 [kJ/mol]
      Ind20,r                      -0.00013906 [mEh]      -0.00008726 [kcal/mol]      -0.00036509 [kJ/mol]
      Exch-Ind20,r                  0.00000119 [mEh]       0.00000074 [kcal/mol]       0.00000311 [kJ/mol]
      delta HF,r (2)               -0.00000147 [mEh]      -0.00000092 [kcal/mol]      -0.00000387 [kJ/mol]

    Dispersion                     -0.01137186 [mEh]      -0.00713595 [kcal/mol]      -0.02985681 [kJ/mol]
      Disp20                       -0.01137204 [mEh]      -0.00713606 [kcal/mol]      -0.02985727 [kJ/mol]
      Exch-Disp20                   0.00000018 [mEh]       0.00000011 [kcal/mol]       0.00000046 [kJ/mol]
      Disp20 (SS)                  -0.00568602 [mEh]      -0.00356803 [kcal/mol]      -0.01492864 [kJ/mol]
      Disp20 (OS)                  -0.00568602 [mEh]      -0.00356803 [kcal/mol]      -0.01492864 [kJ/mol]
      Exch-Disp20 (SS)              0.00000015 [mEh]       0.00000009 [kcal/mol]       0.00000039 [kJ/mol]
      Exch-Disp20 (OS)              0.00000003 [mEh]       0.00000002 [kcal/mol]       0.00000007 [kJ/mol]

  Total HF                         -0.00328201 [mEh]      -0.00205949 [kcal/mol]      -0.00861691 [kJ/mol]
  Total SAPT0                      -0.01465387 [mEh]      -0.00919544 [kcal/mol]      -0.03847372 [kJ/mol]

  Special recipe for scaled SAPT0 (see Manual):
    Electrostatics sSAPT0          -0.00314271 [mEh]      -0.00197208 [kcal/mol]      -0.00825119 [kJ/mol]
    Exchange sSAPT0                 0.00000005 [mEh]       0.00000003 [kcal/mol]       0.00000013 [kJ/mol]
    Induction sSAPT0               -0.00013934 [mEh]      -0.00008744 [kcal/mol]      -0.00036585 [kJ/mol]
    Dispersion sSAPT0              -0.01137186 [mEh]      -0.00713595 [kcal/mol]      -0.02985681 [kJ/mol]
  Total sSAPT0                     -0.01465387 [mEh]      -0.00919544 [kcal/mol]      -0.03847372 [kJ/mol]
  --------------------------------------------------------------------------------------------------------

*** tstop() called on atl1-1-01-015-20-r.pace.gatech.edu at Mon Nov 29 16:11:40 2021
Module time:
	user time   =      38.15 seconds =       0.64 minutes
	system time =       9.01 seconds =       0.15 minutes
	total time  =         25 seconds =       0.42 minutes
Total time:
	user time   =     102.12 seconds =       1.70 minutes
	system time =      11.10 seconds =       0.18 minutes
	total time  =         60 seconds =       1.00 minutes


Warning! sapt0 does not have an associated derived wavefunction.The returned wavefunction is the dimer SCF wavefunction.


    Psi4 stopped on: Monday, 29 November 2021 04:11PM
    Psi4 wall time for execution: 0:01:00.67

*** Psi4 exiting successfully. Buy a developer a beer!
