
    -----------------------------------------------------------------------
          Psi4: An Open-Source Ab Initio Electronic Structure Package
                               Psi4 1.4.1 release

                         Git: Rev {HEAD} cd00f19 


    D. G. A. Smith, L. A. Burns, A. C. Simmonett, R. M. Parrish,
    M. C. Schieber, R. Galvelis, P. Kraus, H. Kruse, R. Di Remigio,
    A. Alenaizan, A. M. James, S. Lehtola, J. P. Misiewicz, M. Scheurer,
    R. A. Shaw, J. B. Schriber, Y. Xie, Z. L. Glick, D. A. Sirianni,
    J. S. O'Brien, J. M. Waldrop, A. Kumar, E. G. Hohenstein,
    B. P. Pritchard, B. R. Brooks, H. F. Schaefer III, A. Yu. Sokolov,
    K. Patkowski, A. E. DePrince III, U. Bozkaya, R. A. King,
    F. A. Evangelista, J. M. Turney, T. D. Crawford, C. D. Sherrill,
    J. Chem. Phys. 152(18) 184108 (2020). https://doi.org/10.1063/5.0006002

                            Additional Code Authors
    E. T. Seidl, C. L. Janssen, E. F. Valeev, M. L. Leininger,
    J. F. Gonthier, R. M. Richard, H. R. McAlexander, M. Saitow, X. Wang,
    P. Verma, and M. H. Lechner

             Previous Authors, Complete List of Code Contributors,
                       and Citations for Specific Modules
    https://github.com/psi4/psi4/blob/master/codemeta.json
    https://github.com/psi4/psi4/graphs/contributors
    http://psicode.org/psi4manual/master/introduction.html#citing-psifour

    -----------------------------------------------------------------------


    Psi4 started on: Monday, 29 November 2021 04:10PM

    Process ID: 36594
    Host:       atl1-1-01-013-7-r.pace.gatech.edu
    PSIDATADIR: /storage/home/hhive1/csargent30/data/miniconda3/envs/psi4/share/psi4
    Memory:     500.0 MiB
    Threads:    2
    
  ==> Input File <==

--------------------------------------------------------------------------
# PSI4 file produced by CrystaLattE

# Generated from:               pyrazine.xyz
# Psithon input for N-mer:      2mer-0+261
# Number of atoms per monomer:  [10, 10]
# Number of replicas:           8
# COM priority:                 2.041086695489e-05
# Minimum COM separations:      19.363 
# Separation priority:          3.195248014735e-05
# Minimum monomer separations:  16.676 
# Cutoff priority:              1.013925622905e-06
# Nuclear repulsion energy:     473.2855021971113

memory 7 GB

molecule Dimer_0_261 {
  N           -1.33084758       0.98032658       0.42627037 
  N            3.95377333       0.98032658       0.42627037 
  H            3.56713674       4.35218569      -0.94230973 
  H           -0.94421098       4.35218569      -0.94230973 
  H           -0.94421098      -2.39153253       1.79485047 
  H            3.56713674      -2.39153253       1.79485047 
  C            2.62292576       2.94097974      -0.42627037 
  C            0.00000000       2.94097974      -0.42627037 
  C            0.00000000      -0.98032658       1.27881112 
  C            2.62292576      -0.98032658       1.27881112 
--
  N          -27.76452559      -4.54731131     -24.26460772 
  N          -22.47990468      -4.54731131     -24.26460772 
  H          -27.37788899      -7.91917042     -25.63318782 
  H          -27.37788899      -1.17545220     -22.89602762 
  H          -22.86654128      -7.91917042     -25.63318782 
  H          -22.86654128      -1.17545220     -22.89602762 
  C          -26.43367802      -6.50796447     -25.11714847 
  C          -26.43367802      -2.58665815     -23.41206697 
  C          -23.81075226      -6.50796447     -25.11714847 
  C          -23.81075226      -2.58665815     -23.41206697 
units = au
no_com
no_reorient
}

set {
  e_convergence 10
  d_convergence 10
  scf_type df
  mp2_type df
  cc_type df
  freeze_core true
}

energy('sapt0/aug-cc-pvdz')

--------------------------------------------------------------------------

  Memory set to   6.519 GiB by Python driver.

Scratch directory: /tmp/

Scratch directory: /tmp/

  //>>>>>>>>>>>>>>>>>>>>>>>>>>>>>>>>>>>//
  //              Dimer HF             //
  //<<<<<<<<<<<<<<<<<<<<<<<<<<<<<<<<<<<//


*** tstart() called on atl1-1-01-013-7-r.pace.gatech.edu
*** at Mon Nov 29 16:10:42 2021

   => Loading Basis Set <=

    Name: AUG-CC-PVDZ
    Role: ORBITAL
    Keyword: BASIS
    atoms 1-2, 11-12  entry N          line   218 file /storage/home/hhive1/csargent30/data/miniconda3/envs/psi4/share/psi4/basis/aug-cc-pvdz.gbs 
    atoms 3-6, 13-16  entry H          line    40 file /storage/home/hhive1/csargent30/data/miniconda3/envs/psi4/share/psi4/basis/aug-cc-pvdz.gbs 
    atoms 7-10, 17-20 entry C          line   182 file /storage/home/hhive1/csargent30/data/miniconda3/envs/psi4/share/psi4/basis/aug-cc-pvdz.gbs 


         ---------------------------------------------------------
                                   SCF
               by Justin Turney, Rob Parrish, Andy Simmonett
                          and Daniel G. A. Smith
                              RHF Reference
                        2 Threads,   6675 MiB Core
         ---------------------------------------------------------

  ==> Geometry <==

    Molecular point group: c1
    Full point group: C1

    Geometry (in Bohr), charge = 0, multiplicity = 1:

       Center              X                  Y                   Z               Mass       
    ------------   -----------------  -----------------  -----------------  -----------------
         N           -1.330847580000     0.980326580000     0.426270370000    14.003074004430
         N            3.953773330000     0.980326580000     0.426270370000    14.003074004430
         H            3.567136740000     4.352185690000    -0.942309730000     1.007825032230
         H           -0.944210980000     4.352185690000    -0.942309730000     1.007825032230
         H           -0.944210980000    -2.391532530000     1.794850470000     1.007825032230
         H            3.567136740000    -2.391532530000     1.794850470000     1.007825032230
         C            2.622925760000     2.940979740000    -0.426270370000    12.000000000000
         C            0.000000000000     2.940979740000    -0.426270370000    12.000000000000
         C            0.000000000000    -0.980326580000     1.278811120000    12.000000000000
         C            2.622925760000    -0.980326580000     1.278811120000    12.000000000000
         N          -27.764525590000    -4.547311310000   -24.264607720000    14.003074004430
         N          -22.479904680000    -4.547311310000   -24.264607720000    14.003074004430
         H          -27.377888990000    -7.919170420000   -25.633187820000     1.007825032230
         H          -27.377888990000    -1.175452200000   -22.896027620000     1.007825032230
         H          -22.866541280000    -7.919170420000   -25.633187820000     1.007825032230
         H          -22.866541280000    -1.175452200000   -22.896027620000     1.007825032230
         C          -26.433678020000    -6.507964470000   -25.117148470000    12.000000000000
         C          -26.433678020000    -2.586658150000   -23.412066970000    12.000000000000
         C          -23.810752260000    -6.507964470000   -25.117148470000    12.000000000000
         C          -23.810752260000    -2.586658150000   -23.412066970000    12.000000000000

  Running in c1 symmetry.

  Rotational constants: A =      0.06904  B =      0.00060  C =      0.00060 [cm^-1]
  Rotational constants: A =   2069.87726  B =     18.01992  C =     17.99267 [MHz]
  Nuclear repulsion =  473.285502160796909

  Charge       = 0
  Multiplicity = 1
  Electrons    = 84
  Nalpha       = 42
  Nbeta        = 42

  ==> Algorithm <==

  SCF Algorithm Type is DF.
  DIIS enabled.
  MOM disabled.
  Fractional occupation disabled.
  Guess Type is SAD.
  Energy threshold   = 1.00e-10
  Density threshold  = 1.00e-10
  Integral threshold = 1.00e-12

  ==> Primary Basis <==

  Basis Set: AUG-CC-PVDZ
    Blend: AUG-CC-PVDZ
    Number of shells: 148
    Number of basis functions: 348
    Number of Cartesian functions: 372
    Spherical Harmonics?: true
    Max angular momentum: 2

   => Loading Basis Set <=

    Name: (AUG-CC-PVDZ AUX)
    Role: JKFIT
    Keyword: DF_BASIS_SCF
    atoms 1-2, 11-12  entry N          line   212 file /storage/home/hhive1/csargent30/data/miniconda3/envs/psi4/share/psi4/basis/aug-cc-pvdz-jkfit.gbs 
    atoms 3-6, 13-16  entry H          line    70 file /storage/home/hhive1/csargent30/data/miniconda3/envs/psi4/share/psi4/basis/aug-cc-pvdz-jkfit.gbs 
    atoms 7-10, 17-20 entry C          line   154 file /storage/home/hhive1/csargent30/data/miniconda3/envs/psi4/share/psi4/basis/aug-cc-pvdz-jkfit.gbs 

  ==> Integral Setup <==

  ==> DiskDFJK: Density-Fitted J/K Matrices <==

    J tasked:                  Yes
    K tasked:                  Yes
    wK tasked:                  No
    OpenMP threads:              2
    Integrals threads:           2
    Memory [MiB]:             5006
    Algorithm:                Core
    Integral Cache:           SAVE
    Schwarz Cutoff:          1E-12
    Fitting Condition:       1E-10

   => Auxiliary Basis Set <=

  Basis Set: (AUG-CC-PVDZ AUX)
    Blend: AUG-CC-PVDZ-JKFIT
    Number of shells: 432
    Number of basis functions: 1288
    Number of Cartesian functions: 1492
    Spherical Harmonics?: true
    Max angular momentum: 3

  Minimum eigenvalue in the overlap matrix is 9.4894854754E-06.
  Reciprocal condition number of the overlap matrix is 7.4014875454E-07.
    Using symmetric orthogonalization.

  ==> Pre-Iterations <==

  SCF Guess: Superposition of Atomic Densities via on-the-fly atomic UHF (no occupation information).

   -------------------------
    Irrep   Nso     Nmo    
   -------------------------
     A        348     348 
   -------------------------
    Total     348     348
   -------------------------

  ==> Iterations <==

                           Total Energy        Delta E     RMS |[F,P]|

   @DF-RHF iter SAD:  -524.65046251118144   -5.24650e+02   0.00000e+00 
   @DF-RHF iter   1:  -525.07881449552815   -4.28352e-01   1.58372e-03 DIIS
   @DF-RHF iter   2:  -525.25757543327165   -1.78761e-01   5.80772e-04 DIIS
   @DF-RHF iter   3:  -525.27724481824225   -1.96694e-02   1.81371e-04 DIIS
   @DF-RHF iter   4:  -525.27969434117074   -2.44952e-03   5.34010e-05 DIIS
   @DF-RHF iter   5:  -525.27987354402717   -1.79203e-04   1.06850e-05 DIIS
   @DF-RHF iter   6:  -525.27988664422412   -1.31002e-05   3.46853e-06 DIIS
   @DF-RHF iter   7:  -525.27988854894579   -1.90472e-06   9.05292e-07 DIIS
   @DF-RHF iter   8:  -525.27988869672174   -1.47776e-07   1.40400e-07 DIIS
   @DF-RHF iter   9:  -525.27988870069032   -3.96858e-09   2.78940e-08 DIIS
   @DF-RHF iter  10:  -525.27988870083152   -1.41199e-10   1.09510e-08 DIIS
   @DF-RHF iter  11:  -525.27988870084084   -9.32232e-12   3.35637e-09 DIIS
   @DF-RHF iter  12:  -525.27988870084334   -2.50111e-12   4.92809e-10 DIIS
   @DF-RHF iter  13:  -525.27988870084187    1.47793e-12   2.18174e-10 DIIS
   @DF-RHF iter  14:  -525.27988870084255   -6.82121e-13   5.89217e-11 DIIS
  Energy and wave function converged.


  ==> Post-Iterations <==

    Orbital Energies [Eh]
    ---------------------

    Doubly Occupied:                                                      

       1A    -15.598011     2A    -15.597992     3A    -15.597978  
       4A    -15.597958     5A    -11.274178     6A    -11.274145  
       7A    -11.274133     8A    -11.274100     9A    -11.272915  
      10A    -11.272909    11A    -11.272881    12A    -11.272875  
      13A     -1.313286    14A     -1.313252    15A     -1.224115  
      16A     -1.224081    17A     -1.076743    18A     -1.076709  
      19A     -0.922602    20A     -0.922568    21A     -0.919222  
      22A     -0.919188    23A     -0.760577    24A     -0.760543  
      25A     -0.738342    26A     -0.738308    27A     -0.706153  
      28A     -0.706119    29A     -0.647627    30A     -0.647593  
      31A     -0.580651    32A     -0.580617    33A     -0.574308  
      34A     -0.574275    35A     -0.497052    36A     -0.497018  
      37A     -0.434227    38A     -0.434193    39A     -0.415795  
      40A     -0.415761    41A     -0.359863    42A     -0.359830  

    Virtual:                                                              

      43A      0.034555    44A      0.034589    45A      0.040792  
      46A      0.040828    47A      0.048436    48A      0.048476  
      49A      0.058640    50A      0.058681    51A      0.067176  
      52A      0.067208    53A      0.099481    54A      0.099514  
      55A      0.101006    56A      0.101040    57A      0.114268  
      58A      0.114298    59A      0.115017    60A      0.115049  
      61A      0.123829    62A      0.123868    63A      0.125386  
      64A      0.125418    65A      0.128713    66A      0.128752  
      67A      0.132954    68A      0.132985    69A      0.158254  
      70A      0.158290    71A      0.161144    72A      0.161178  
      73A      0.161377    74A      0.161417    75A      0.163967  
      76A      0.164009    77A      0.175230    78A      0.175270  
      79A      0.186980    80A      0.187013    81A      0.203973  
      82A      0.204004    83A      0.212601    84A      0.212635  
      85A      0.250582    86A      0.250614    87A      0.267815  
      88A      0.267851    89A      0.278118    90A      0.278152  
      91A      0.287875    92A      0.287908    93A      0.293265  
      94A      0.293300    95A      0.295801    96A      0.295844  
      97A      0.314888    98A      0.314925    99A      0.320519  
     100A      0.320553   101A      0.355483   102A      0.355521  
     103A      0.357969   104A      0.358002   105A      0.364721  
     106A      0.364755   107A      0.382640   108A      0.382676  
     109A      0.398951   110A      0.398984   111A      0.409952  
     112A      0.409988   113A      0.425508   114A      0.425545  
     115A      0.433986   116A      0.434019   117A      0.437268  
     118A      0.437304   119A      0.452148   120A      0.452185  
     121A      0.471543   122A      0.471577   123A      0.492199  
     124A      0.492233   125A      0.504920   126A      0.504955  
     127A      0.514977   128A      0.515009   129A      0.524606  
     130A      0.524640   131A      0.528731   132A      0.528763  
     133A      0.554637   134A      0.554672   135A      0.570595  
     136A      0.570629   137A      0.587595   138A      0.587629  
     139A      0.591567   140A      0.591601   141A      0.593859  
     142A      0.593894   143A      0.608986   144A      0.609022  
     145A      0.643575   146A      0.643611   147A      0.644378  
     148A      0.644413   149A      0.685196   150A      0.685231  
     151A      0.687819   152A      0.687853   153A      0.689991  
     154A      0.690025   155A      0.690402   156A      0.690436  
     157A      0.694886   158A      0.694921   159A      0.703886  
     160A      0.703923   161A      0.746615   162A      0.746650  
     163A      0.754877   164A      0.754911   165A      0.767025  
     166A      0.767059   167A      0.781468   168A      0.781501  
     169A      0.799874   170A      0.799908   171A      0.802771  
     172A      0.802804   173A      0.819078   174A      0.819111  
     175A      0.831133   176A      0.831166   177A      0.847572  
     178A      0.847607   179A      0.880604   180A      0.880638  
     181A      0.886469   182A      0.886504   183A      0.894745  
     184A      0.894777   185A      0.929332   186A      0.929367  
     187A      0.939527   188A      0.939561   189A      0.949366  
     190A      0.949400   191A      0.996712   192A      0.996746  
     193A      0.998967   194A      0.999002   195A      1.013076  
     196A      1.013110   197A      1.033430   198A      1.033464  
     199A      1.051255   200A      1.051289   201A      1.089441  
     202A      1.089475   203A      1.100506   204A      1.100540  
     205A      1.122259   206A      1.122293   207A      1.124106  
     208A      1.124139   209A      1.134422   210A      1.134456  
     211A      1.158800   212A      1.158835   213A      1.173625  
     214A      1.173659   215A      1.235476   216A      1.235511  
     217A      1.238863   218A      1.238898   219A      1.309734  
     220A      1.309768   221A      1.331209   222A      1.331242  
     223A      1.414342   224A      1.414376   225A      1.451587  
     226A      1.451621   227A      1.486197   228A      1.486231  
     229A      1.488135   230A      1.488169   231A      1.499271  
     232A      1.499305   233A      1.502907   234A      1.502940  
     235A      1.518311   236A      1.518346   237A      1.572747  
     238A      1.572781   239A      1.574253   240A      1.574287  
     241A      1.587897   242A      1.587930   243A      1.636042  
     244A      1.636076   245A      1.640564   246A      1.640598  
     247A      1.648279   248A      1.648314   249A      1.676613  
     250A      1.676646   251A      1.717053   252A      1.717086  
     253A      1.746659   254A      1.746692   255A      1.755165  
     256A      1.755198   257A      1.783823   258A      1.783857  
     259A      1.815788   260A      1.815822   261A      1.893384  
     262A      1.893417   263A      1.916197   264A      1.916231  
     265A      1.964889   266A      1.964923   267A      1.987735  
     268A      1.987769   269A      2.031262   270A      2.031296  
     271A      2.091609   272A      2.091643   273A      2.101088  
     274A      2.101122   275A      2.143013   276A      2.143048  
     277A      2.163416   278A      2.163450   279A      2.190548  
     280A      2.190582   281A      2.193361   282A      2.193395  
     283A      2.200440   284A      2.200474   285A      2.202470  
     286A      2.202504   287A      2.227687   288A      2.227721  
     289A      2.312821   290A      2.312855   291A      2.355289  
     292A      2.355323   293A      2.431017   294A      2.431051  
     295A      2.439037   296A      2.439071   297A      2.519439  
     298A      2.519473   299A      2.522455   300A      2.522489  
     301A      2.584827   302A      2.584861   303A      2.606327  
     304A      2.606361   305A      2.665284   306A      2.665318  
     307A      2.675470   308A      2.675504   309A      2.686456  
     310A      2.686490   311A      2.714046   312A      2.714080  
     313A      2.718651   314A      2.718685   315A      2.844075  
     316A      2.844109   317A      2.865821   318A      2.865855  
     319A      2.939256   320A      2.939290   321A      3.001915  
     322A      3.001949   323A      3.017932   324A      3.017966  
     325A      3.032247   326A      3.032281   327A      3.094197  
     328A      3.094231   329A      3.220376   330A      3.220411  
     331A      3.256040   332A      3.256074   333A      3.284940  
     334A      3.284974   335A      3.366200   336A      3.366234  
     337A      3.413427   338A      3.413461   339A      3.514980  
     340A      3.515014   341A      3.590715   342A      3.590749  
     343A      3.627829   344A      3.627863   345A      3.977296  
     346A      3.977330   347A      4.253546   348A      4.253579  

    Final Occupation by Irrep:
              A 
    DOCC [    42 ]

  @DF-RHF Final Energy:  -525.27988870084255

   => Energetics <=

    Nuclear Repulsion Energy =            473.2855021607969093
    One-Electron Energy =               -1647.2894036337374928
    Two-Electron Energy =                 648.7240127720979217
    Total Energy =                       -525.2798887008425481

Computation Completed


Properties will be evaluated at   0.000000,   0.000000,   0.000000 [a0]

Properties computed using the SCF density matrix

  Nuclear Dipole Moment: [e a0]
     X: -1000.0516      Y:  -149.8134      Z: -1001.2102

  Electronic Dipole Moment: [e a0]
     X:  1000.0518      Y:   149.8132      Z:  1001.2103

  Dipole Moment: [e a0]
     X:     0.0002      Y:    -0.0002      Z:     0.0001     Total:     0.0003

  Dipole Moment: [D]
     X:     0.0005      Y:    -0.0004      Z:     0.0004     Total:     0.0007


*** tstop() called on atl1-1-01-013-7-r.pace.gatech.edu at Mon Nov 29 16:10:58 2021
Module time:
	user time   =      27.81 seconds =       0.46 minutes
	system time =       1.10 seconds =       0.02 minutes
	total time  =         16 seconds =       0.27 minutes
Total time:
	user time   =      27.81 seconds =       0.46 minutes
	system time =       1.10 seconds =       0.02 minutes
	total time  =         16 seconds =       0.27 minutes

  //>>>>>>>>>>>>>>>>>>>>>>>>>>>>>>>>>>>//
  //            Monomer A HF           //
  //<<<<<<<<<<<<<<<<<<<<<<<<<<<<<<<<<<<//


*** tstart() called on atl1-1-01-013-7-r.pace.gatech.edu
*** at Mon Nov 29 16:10:58 2021

   => Loading Basis Set <=

    Name: AUG-CC-PVDZ
    Role: ORBITAL
    Keyword: BASIS
    atoms 1-2, 11-12  entry N          line   218 file /storage/home/hhive1/csargent30/data/miniconda3/envs/psi4/share/psi4/basis/aug-cc-pvdz.gbs 
    atoms 3-6, 13-16  entry H          line    40 file /storage/home/hhive1/csargent30/data/miniconda3/envs/psi4/share/psi4/basis/aug-cc-pvdz.gbs 
    atoms 7-10, 17-20 entry C          line   182 file /storage/home/hhive1/csargent30/data/miniconda3/envs/psi4/share/psi4/basis/aug-cc-pvdz.gbs 


         ---------------------------------------------------------
                                   SCF
               by Justin Turney, Rob Parrish, Andy Simmonett
                          and Daniel G. A. Smith
                              RHF Reference
                        2 Threads,   6675 MiB Core
         ---------------------------------------------------------

  ==> Geometry <==

    Molecular point group: c1
    Full point group: C1

    Geometry (in Bohr), charge = 0, multiplicity = 1:

       Center              X                  Y                   Z               Mass       
    ------------   -----------------  -----------------  -----------------  -----------------
         N           -1.330847580000     0.980326580000     0.426270370000    14.003074004430
         N            3.953773330000     0.980326580000     0.426270370000    14.003074004430
         H            3.567136740000     4.352185690000    -0.942309730000     1.007825032230
         H           -0.944210980000     4.352185690000    -0.942309730000     1.007825032230
         H           -0.944210980000    -2.391532530000     1.794850470000     1.007825032230
         H            3.567136740000    -2.391532530000     1.794850470000     1.007825032230
         C            2.622925760000     2.940979740000    -0.426270370000    12.000000000000
         C            0.000000000000     2.940979740000    -0.426270370000    12.000000000000
         C            0.000000000000    -0.980326580000     1.278811120000    12.000000000000
         C            2.622925760000    -0.980326580000     1.278811120000    12.000000000000
      Gh(N)         -27.764525590000    -4.547311310000   -24.264607720000    14.003074004430
      Gh(N)         -22.479904680000    -4.547311310000   -24.264607720000    14.003074004430
      Gh(H)         -27.377888990000    -7.919170420000   -25.633187820000     1.007825032230
      Gh(H)         -27.377888990000    -1.175452200000   -22.896027620000     1.007825032230
      Gh(H)         -22.866541280000    -7.919170420000   -25.633187820000     1.007825032230
      Gh(H)         -22.866541280000    -1.175452200000   -22.896027620000     1.007825032230
      Gh(C)         -26.433678020000    -6.507964470000   -25.117148470000    12.000000000000
      Gh(C)         -26.433678020000    -2.586658150000   -23.412066970000    12.000000000000
      Gh(C)         -23.810752260000    -6.507964470000   -25.117148470000    12.000000000000
      Gh(C)         -23.810752260000    -2.586658150000   -23.412066970000    12.000000000000

  Running in c1 symmetry.

  Rotational constants: A =      0.06904  B =      0.00060  C =      0.00060 [cm^-1]
  Rotational constants: A =   2069.87726  B =     18.01992  C =     17.99267 [MHz]
  Nuclear repulsion =  212.551731110485349

  Charge       = 0
  Multiplicity = 1
  Electrons    = 42
  Nalpha       = 21
  Nbeta        = 21

  ==> Algorithm <==

  SCF Algorithm Type is DF.
  DIIS enabled.
  MOM disabled.
  Fractional occupation disabled.
  Guess Type is SAD.
  Energy threshold   = 1.00e-10
  Density threshold  = 1.00e-10
  Integral threshold = 1.00e-12

  ==> Primary Basis <==

  Basis Set: AUG-CC-PVDZ
    Blend: AUG-CC-PVDZ
    Number of shells: 148
    Number of basis functions: 348
    Number of Cartesian functions: 372
    Spherical Harmonics?: true
    Max angular momentum: 2

   => Loading Basis Set <=

    Name: (AUG-CC-PVDZ AUX)
    Role: JKFIT
    Keyword: DF_BASIS_SCF
    atoms 1-2, 11-12  entry N          line   212 file /storage/home/hhive1/csargent30/data/miniconda3/envs/psi4/share/psi4/basis/aug-cc-pvdz-jkfit.gbs 
    atoms 3-6, 13-16  entry H          line    70 file /storage/home/hhive1/csargent30/data/miniconda3/envs/psi4/share/psi4/basis/aug-cc-pvdz-jkfit.gbs 
    atoms 7-10, 17-20 entry C          line   154 file /storage/home/hhive1/csargent30/data/miniconda3/envs/psi4/share/psi4/basis/aug-cc-pvdz-jkfit.gbs 

  ==> Integral Setup <==

  ==> DiskDFJK: Density-Fitted J/K Matrices <==

    J tasked:                  Yes
    K tasked:                  Yes
    wK tasked:                  No
    OpenMP threads:              2
    Integrals threads:           2
    Memory [MiB]:             5006
    Algorithm:                Core
    Integral Cache:           LOAD
    Schwarz Cutoff:          1E-12
    Fitting Condition:       1E-10

   => Auxiliary Basis Set <=

  Basis Set: (AUG-CC-PVDZ AUX)
    Blend: AUG-CC-PVDZ-JKFIT
    Number of shells: 432
    Number of basis functions: 1288
    Number of Cartesian functions: 1492
    Spherical Harmonics?: true
    Max angular momentum: 3

  Minimum eigenvalue in the overlap matrix is 9.4894854754E-06.
  Reciprocal condition number of the overlap matrix is 7.4014875454E-07.
    Using symmetric orthogonalization.

  ==> Pre-Iterations <==

  SCF Guess: Superposition of Atomic Densities via on-the-fly atomic UHF (no occupation information).

   -------------------------
    Irrep   Nso     Nmo    
   -------------------------
     A        348     348 
   -------------------------
    Total     348     348
   -------------------------

  ==> Iterations <==

                           Total Energy        Delta E     RMS |[F,P]|

   @DF-RHF iter SAD:  -262.32523125859643   -2.62325e+02   0.00000e+00 
   @DF-RHF iter   1:  -262.53940798205304   -2.14177e-01   1.11985e-03 DIIS
   @DF-RHF iter   2:  -262.62878837463359   -8.93804e-02   4.10664e-04 DIIS
   @DF-RHF iter   3:  -262.63862291922470   -9.83454e-03   1.28248e-04 DIIS
   @DF-RHF iter   4:  -262.63984767249906   -1.22475e-03   3.77599e-05 DIIS
   @DF-RHF iter   5:  -262.63993727296031   -8.96005e-05   7.55558e-06 DIIS
   @DF-RHF iter   6:  -262.63994382322051   -6.55026e-06   2.45264e-06 DIIS
   @DF-RHF iter   7:  -262.63994477559345   -9.52373e-07   6.40130e-07 DIIS
   @DF-RHF iter   8:  -262.63994484948171   -7.38883e-08   9.91693e-08 DIIS
   @DF-RHF iter   9:  -262.63994485146765   -1.98594e-09   1.88228e-08 DIIS
   @DF-RHF iter  10:  -262.63994485153734   -6.96900e-11   3.19151e-09 DIIS
   @DF-RHF iter  11:  -262.63994485154035   -3.01270e-12   5.22317e-10 DIIS
   @DF-RHF iter  12:  -262.63994485154029    5.68434e-14   9.54311e-11 DIIS
  Energy and wave function converged.


  ==> Post-Iterations <==

    Orbital Energies [Eh]
    ---------------------

    Doubly Occupied:                                                      

       1A    -15.598072     2A    -15.598053     3A    -11.274239  
       4A    -11.274194     5A    -11.272975     6A    -11.272969  
       7A     -1.313347     8A     -1.224176     9A     -1.076803  
      10A     -0.922662    11A     -0.919282    12A     -0.760637  
      13A     -0.738402    14A     -0.706214    15A     -0.647687  
      16A     -0.580711    17A     -0.574369    18A     -0.497113  
      19A     -0.434288    20A     -0.415855    21A     -0.359924  

    Virtual:                                                              

      22A      0.022454    23A      0.034497    24A      0.039523  
      25A      0.040739    26A      0.041198    27A      0.048383  
      28A      0.058591    29A      0.058865    30A      0.067113  
      31A      0.079704    32A      0.085065    33A      0.099419  
      34A      0.100948    35A      0.104009    36A      0.108535  
      37A      0.108873    38A      0.114201    39A      0.114951  
      40A      0.122519    41A      0.123776    42A      0.125322  
      43A      0.125604    44A      0.128661    45A      0.130966  
      46A      0.132889    47A      0.134166    48A      0.152120  
      49A      0.153047    50A      0.158199    51A      0.159365  
      52A      0.161084    53A      0.161326    54A      0.163914  
      55A      0.175179    56A      0.176760    57A      0.186918  
      58A      0.197820    59A      0.203908    60A      0.203922  
      61A      0.206685    62A      0.212538    63A      0.222400  
      64A      0.233630    65A      0.239456    66A      0.250517  
      67A      0.255241    68A      0.267756    69A      0.270796  
      70A      0.278056    71A      0.287812    72A      0.293207  
      73A      0.295749    74A      0.302340    75A      0.314832  
      76A      0.320457    77A      0.320656    78A      0.328175  
      79A      0.331321    80A      0.344137    81A      0.355428  
      82A      0.357908    83A      0.364661    84A      0.380516  
      85A      0.382583    86A      0.385654    87A      0.398891  
      88A      0.401290    89A      0.409895    90A      0.419288  
      91A      0.424968    92A      0.425453    93A      0.433925  
      94A      0.437212    95A      0.441951    96A      0.452092  
      97A      0.460674    98A      0.461122    99A      0.471483  
     100A      0.476103   101A      0.478836   102A      0.492140  
     103A      0.504862   104A      0.507838   105A      0.514914  
     106A      0.523782   107A      0.524547   108A      0.528668  
     109A      0.535750   110A      0.554577   111A      0.557861  
     112A      0.561531   113A      0.564512   114A      0.570535  
     115A      0.581921   116A      0.587535   117A      0.591506  
     118A      0.593799   119A      0.596026   120A      0.608929  
     121A      0.615159   122A      0.620178   123A      0.636383  
     124A      0.643517   125A      0.644321   126A      0.649373  
     127A      0.651508   128A      0.679430   129A      0.685136  
     130A      0.685331   131A      0.687758   132A      0.689932  
     133A      0.690342   134A      0.694828   135A      0.703829  
     136A      0.719905   137A      0.728411   138A      0.746558  
     139A      0.746806   140A      0.754817   141A      0.766965  
     142A      0.775700   143A      0.781406   144A      0.793649  
     145A      0.799815   146A      0.802710   147A      0.811111  
     148A      0.811995   149A      0.819016   150A      0.824769  
     151A      0.831071   152A      0.847513   153A      0.848080  
     154A      0.849202   155A      0.868623   156A      0.880544  
     157A      0.886410   158A      0.888167   159A      0.894682  
     160A      0.906122   161A      0.929130   162A      0.929272  
     163A      0.939466   164A      0.947709   165A      0.949307  
     166A      0.970798   167A      0.976952   168A      0.986654  
     169A      0.996652   170A      0.998908   171A      1.013015  
     172A      1.032436   173A      1.033370   174A      1.046947  
     175A      1.051194   176A      1.076282   177A      1.089381  
     178A      1.090296   179A      1.100445   180A      1.122199  
     181A      1.124044   182A      1.130679   183A      1.134362  
     184A      1.140283   185A      1.158740   186A      1.168607  
     187A      1.170695   188A      1.173565   189A      1.192225  
     190A      1.193258   191A      1.200491   192A      1.222334  
     193A      1.235416   194A      1.238804   195A      1.251046  
     196A      1.307575   197A      1.309674   198A      1.318280  
     199A      1.326431   200A      1.329630   201A      1.331148  
     202A      1.346826   203A      1.389232   204A      1.414282  
     205A      1.448407   206A      1.451526   207A      1.455477  
     208A      1.479151   209A      1.486137   210A      1.487223  
     211A      1.488075   212A      1.499211   213A      1.502846  
     214A      1.518252   215A      1.572686   216A      1.574192  
     217A      1.587836   218A      1.635982   219A      1.640505  
     220A      1.648219   221A      1.659259   222A      1.676552  
     223A      1.698085   224A      1.716991   225A      1.746597  
     226A      1.755104   227A      1.783762   228A      1.815727  
     229A      1.893323   230A      1.916137   231A      1.964829  
     232A      1.987674   233A      2.031202   234A      2.070246  
     235A      2.091548   236A      2.101028   237A      2.102785  
     238A      2.119463   239A      2.142953   240A      2.156696  
     241A      2.159209   242A      2.163355   243A      2.190488  
     244A      2.193301   245A      2.194880   246A      2.200380  
     247A      2.202410   248A      2.227626   249A      2.234795  
     250A      2.241223   251A      2.249680   252A      2.310034  
     253A      2.312761   254A      2.319567   255A      2.355229  
     256A      2.384825   257A      2.419229   258A      2.430957  
     259A      2.435432   260A      2.438185   261A      2.438977  
     262A      2.472697   263A      2.486744   264A      2.498340  
     265A      2.519379   266A      2.522395   267A      2.525087  
     268A      2.546015   269A      2.568347   270A      2.584766  
     271A      2.592392   272A      2.606266   273A      2.625992  
     274A      2.665224   275A      2.675409   276A      2.686395  
     277A      2.713985   278A      2.716918   279A      2.718591  
     280A      2.726672   281A      2.767955   282A      2.844014  
     283A      2.865761   284A      2.904056   285A      2.939196  
     286A      2.947247   287A      2.955771   288A      2.973362  
     289A      3.001855   290A      3.017872   291A      3.032186  
     292A      3.058351   293A      3.065250   294A      3.094137  
     295A      3.113889   296A      3.220316   297A      3.245750  
     298A      3.255980   299A      3.284880   300A      3.289702  
     301A      3.321982   302A      3.337763   303A      3.340508  
     304A      3.348680   305A      3.351403   306A      3.366140  
     307A      3.412652   308A      3.413367   309A      3.470806  
     310A      3.502007   311A      3.514920   312A      3.521416  
     313A      3.590655   314A      3.604490   315A      3.605697  
     316A      3.627769   317A      3.700537   318A      3.818977  
     319A      3.830741   320A      3.941022   321A      3.969148  
     322A      3.977236   323A      4.011455   324A      4.194811  
     325A      4.242303   326A      4.253485   327A      4.442041  
     328A      4.546882   329A      4.579330   330A      4.867693  
     331A      4.976196   332A      5.057905   333A      5.261764  
     334A      5.316593   335A      5.630251   336A      5.691377  
     337A      5.827201   338A      5.952685   339A      6.283881  
     340A      6.306942   341A      6.453819   342A      6.631253  
     343A     18.125770   344A     18.208032   345A     19.017628  
     346A     19.343053   347A     25.287115   348A     25.374834  

    Final Occupation by Irrep:
              A 
    DOCC [    21 ]

  @DF-RHF Final Energy:  -262.63994485154029

   => Energetics <=

    Nuclear Repulsion Energy =            212.5517311104853491
    One-Electron Energy =                -775.4594096318131733
    Two-Electron Energy =                 300.2677336697875603
    Total Energy =                       -262.6399448515402923

Computation Completed


Properties will be evaluated at   0.000000,   0.000000,   0.000000 [a0]

Properties computed using the SCF density matrix

  Nuclear Dipole Moment: [e a0]
     X:    55.0814      Y:    41.1737      Z:    17.9034

  Electronic Dipole Moment: [e a0]
     X:   -55.0814      Y:   -41.1737      Z:   -17.9034

  Dipole Moment: [e a0]
     X:    -0.0000      Y:     0.0000      Z:     0.0000     Total:     0.0000

  Dipole Moment: [D]
     X:    -0.0000      Y:     0.0000      Z:     0.0000     Total:     0.0000


*** tstop() called on atl1-1-01-013-7-r.pace.gatech.edu at Mon Nov 29 16:11:07 2021
Module time:
	user time   =      15.43 seconds =       0.26 minutes
	system time =       0.50 seconds =       0.01 minutes
	total time  =          9 seconds =       0.15 minutes
Total time:
	user time   =      43.25 seconds =       0.72 minutes
	system time =       1.60 seconds =       0.03 minutes
	total time  =         25 seconds =       0.42 minutes

  //>>>>>>>>>>>>>>>>>>>>>>>>>>>>>>>>>>>//
  //            Monomer B HF           //
  //<<<<<<<<<<<<<<<<<<<<<<<<<<<<<<<<<<<//


*** tstart() called on atl1-1-01-013-7-r.pace.gatech.edu
*** at Mon Nov 29 16:11:07 2021

   => Loading Basis Set <=

    Name: AUG-CC-PVDZ
    Role: ORBITAL
    Keyword: BASIS
    atoms 1-2, 11-12  entry N          line   218 file /storage/home/hhive1/csargent30/data/miniconda3/envs/psi4/share/psi4/basis/aug-cc-pvdz.gbs 
    atoms 3-6, 13-16  entry H          line    40 file /storage/home/hhive1/csargent30/data/miniconda3/envs/psi4/share/psi4/basis/aug-cc-pvdz.gbs 
    atoms 7-10, 17-20 entry C          line   182 file /storage/home/hhive1/csargent30/data/miniconda3/envs/psi4/share/psi4/basis/aug-cc-pvdz.gbs 


         ---------------------------------------------------------
                                   SCF
               by Justin Turney, Rob Parrish, Andy Simmonett
                          and Daniel G. A. Smith
                              RHF Reference
                        2 Threads,   6675 MiB Core
         ---------------------------------------------------------

  ==> Geometry <==

    Molecular point group: c1
    Full point group: C1

    Geometry (in Bohr), charge = 0, multiplicity = 1:

       Center              X                  Y                   Z               Mass       
    ------------   -----------------  -----------------  -----------------  -----------------
      Gh(N)          -1.330847580000     0.980326580000     0.426270370000    14.003074004430
      Gh(N)           3.953773330000     0.980326580000     0.426270370000    14.003074004430
      Gh(H)           3.567136740000     4.352185690000    -0.942309730000     1.007825032230
      Gh(H)          -0.944210980000     4.352185690000    -0.942309730000     1.007825032230
      Gh(H)          -0.944210980000    -2.391532530000     1.794850470000     1.007825032230
      Gh(H)           3.567136740000    -2.391532530000     1.794850470000     1.007825032230
      Gh(C)           2.622925760000     2.940979740000    -0.426270370000    12.000000000000
      Gh(C)           0.000000000000     2.940979740000    -0.426270370000    12.000000000000
      Gh(C)           0.000000000000    -0.980326580000     1.278811120000    12.000000000000
      Gh(C)           2.622925760000    -0.980326580000     1.278811120000    12.000000000000
         N          -27.764525590000    -4.547311310000   -24.264607720000    14.003074004430
         N          -22.479904680000    -4.547311310000   -24.264607720000    14.003074004430
         H          -27.377888990000    -7.919170420000   -25.633187820000     1.007825032230
         H          -27.377888990000    -1.175452200000   -22.896027620000     1.007825032230
         H          -22.866541280000    -7.919170420000   -25.633187820000     1.007825032230
         H          -22.866541280000    -1.175452200000   -22.896027620000     1.007825032230
         C          -26.433678020000    -6.507964470000   -25.117148470000    12.000000000000
         C          -26.433678020000    -2.586658150000   -23.412066970000    12.000000000000
         C          -23.810752260000    -6.507964470000   -25.117148470000    12.000000000000
         C          -23.810752260000    -2.586658150000   -23.412066970000    12.000000000000

  Running in c1 symmetry.

  Rotational constants: A =      0.06904  B =      0.00060  C =      0.00060 [cm^-1]
  Rotational constants: A =   2069.87726  B =     18.01992  C =     17.99267 [MHz]
  Nuclear repulsion =  212.551731074928142

  Charge       = 0
  Multiplicity = 1
  Electrons    = 42
  Nalpha       = 21
  Nbeta        = 21

  ==> Algorithm <==

  SCF Algorithm Type is DF.
  DIIS enabled.
  MOM disabled.
  Fractional occupation disabled.
  Guess Type is SAD.
  Energy threshold   = 1.00e-10
  Density threshold  = 1.00e-10
  Integral threshold = 1.00e-12

  ==> Primary Basis <==

  Basis Set: AUG-CC-PVDZ
    Blend: AUG-CC-PVDZ
    Number of shells: 148
    Number of basis functions: 348
    Number of Cartesian functions: 372
    Spherical Harmonics?: true
    Max angular momentum: 2

   => Loading Basis Set <=

    Name: (AUG-CC-PVDZ AUX)
    Role: JKFIT
    Keyword: DF_BASIS_SCF
    atoms 1-2, 11-12  entry N          line   212 file /storage/home/hhive1/csargent30/data/miniconda3/envs/psi4/share/psi4/basis/aug-cc-pvdz-jkfit.gbs 
    atoms 3-6, 13-16  entry H          line    70 file /storage/home/hhive1/csargent30/data/miniconda3/envs/psi4/share/psi4/basis/aug-cc-pvdz-jkfit.gbs 
    atoms 7-10, 17-20 entry C          line   154 file /storage/home/hhive1/csargent30/data/miniconda3/envs/psi4/share/psi4/basis/aug-cc-pvdz-jkfit.gbs 

  ==> Integral Setup <==

  ==> DiskDFJK: Density-Fitted J/K Matrices <==

    J tasked:                  Yes
    K tasked:                  Yes
    wK tasked:                  No
    OpenMP threads:              2
    Integrals threads:           2
    Memory [MiB]:             5006
    Algorithm:                Core
    Integral Cache:           LOAD
    Schwarz Cutoff:          1E-12
    Fitting Condition:       1E-10

   => Auxiliary Basis Set <=

  Basis Set: (AUG-CC-PVDZ AUX)
    Blend: AUG-CC-PVDZ-JKFIT
    Number of shells: 432
    Number of basis functions: 1288
    Number of Cartesian functions: 1492
    Spherical Harmonics?: true
    Max angular momentum: 3

  Minimum eigenvalue in the overlap matrix is 9.4894854754E-06.
  Reciprocal condition number of the overlap matrix is 7.4014875454E-07.
    Using symmetric orthogonalization.

  ==> Pre-Iterations <==

  SCF Guess: Superposition of Atomic Densities via on-the-fly atomic UHF (no occupation information).

   -------------------------
    Irrep   Nso     Nmo    
   -------------------------
     A        348     348 
   -------------------------
    Total     348     348
   -------------------------

  ==> Iterations <==

                           Total Energy        Delta E     RMS |[F,P]|

   @DF-RHF iter SAD:  -262.32523125174032   -2.62325e+02   0.00000e+00 
   @DF-RHF iter   1:  -262.53940797792745   -2.14177e-01   1.11985e-03 DIIS
   @DF-RHF iter   2:  -262.62878837038568   -8.93804e-02   4.10664e-04 DIIS
   @DF-RHF iter   3:  -262.63862291487658   -9.83454e-03   1.28248e-04 DIIS
   @DF-RHF iter   4:  -262.63984766814576   -1.22475e-03   3.77599e-05 DIIS
   @DF-RHF iter   5:  -262.63993726860622   -8.96005e-05   7.55558e-06 DIIS
   @DF-RHF iter   6:  -262.63994381886624   -6.55026e-06   2.45264e-06 DIIS
   @DF-RHF iter   7:  -262.63994477123987   -9.52374e-07   6.40130e-07 DIIS
   @DF-RHF iter   8:  -262.63994484512773   -7.38879e-08   9.91693e-08 DIIS
   @DF-RHF iter   9:  -262.63994484711327   -1.98554e-09   1.88228e-08 DIIS
   @DF-RHF iter  10:  -262.63994484718529   -7.20206e-11   3.19151e-09 DIIS
   @DF-RHF iter  11:  -262.63994484718654   -1.25056e-12   5.22317e-10 DIIS
   @DF-RHF iter  12:  -262.63994484718683   -2.84217e-13   9.54300e-11 DIIS
  Energy and wave function converged.


  ==> Post-Iterations <==

    Orbital Energies [Eh]
    ---------------------

    Doubly Occupied:                                                      

       1A    -15.598072     2A    -15.598053     3A    -11.274239  
       4A    -11.274194     5A    -11.272975     6A    -11.272969  
       7A     -1.313347     8A     -1.224176     9A     -1.076803  
      10A     -0.922662    11A     -0.919282    12A     -0.760637  
      13A     -0.738402    14A     -0.706214    15A     -0.647687  
      16A     -0.580711    17A     -0.574369    18A     -0.497113  
      19A     -0.434288    20A     -0.415855    21A     -0.359924  

    Virtual:                                                              

      22A      0.022420    23A      0.034497    24A      0.039488  
      25A      0.040738    26A      0.041160    27A      0.048383  
      28A      0.058591    29A      0.058825    30A      0.067113  
      31A      0.079676    32A      0.085030    33A      0.099419  
      34A      0.100948    35A      0.103971    36A      0.108504  
      37A      0.108837    38A      0.114201    39A      0.114951  
      40A      0.122488    41A      0.123776    42A      0.125322  
      43A      0.125569    44A      0.128661    45A      0.130937  
      46A      0.132889    47A      0.134127    48A      0.152081  
      49A      0.153010    50A      0.158199    51A      0.159332  
      52A      0.161084    53A      0.161326    54A      0.163914  
      55A      0.175179    56A      0.176721    57A      0.186918  
      58A      0.197785    59A      0.203891    60A      0.203908  
      61A      0.206652    62A      0.212538    63A      0.222367  
      64A      0.233595    65A      0.239419    66A      0.250517  
      67A      0.255209    68A      0.267756    69A      0.270761  
      70A      0.278056    71A      0.287812    72A      0.293207  
      73A      0.295749    74A      0.302306    75A      0.314832  
      76A      0.320457    77A      0.320620    78A      0.328140  
      79A      0.331289    80A      0.344100    81A      0.355428  
      82A      0.357908    83A      0.364661    84A      0.380480  
      85A      0.382583    86A      0.385622    87A      0.398891  
      88A      0.401255    89A      0.409895    90A      0.419252  
      91A      0.424936    92A      0.425453    93A      0.433925  
      94A      0.437212    95A      0.441917    96A      0.452092  
      97A      0.460641    98A      0.461088    99A      0.471483  
     100A      0.476070   101A      0.478801   102A      0.492140  
     103A      0.504862   104A      0.507803   105A      0.514914  
     106A      0.523746   107A      0.524547   108A      0.528668  
     109A      0.535716   110A      0.554577   111A      0.557827  
     112A      0.561498   113A      0.564478   114A      0.570535  
     115A      0.581885   116A      0.587535   117A      0.591506  
     118A      0.593799   119A      0.595989   120A      0.608929  
     121A      0.615126   122A      0.620145   123A      0.636350  
     124A      0.643517   125A      0.644321   126A      0.649339  
     127A      0.651475   128A      0.679395   129A      0.685136  
     130A      0.685296   131A      0.687758   132A      0.689932  
     133A      0.690342   134A      0.694828   135A      0.703830  
     136A      0.719871   137A      0.728378   138A      0.746558  
     139A      0.746774   140A      0.754817   141A      0.766965  
     142A      0.775667   143A      0.781406   144A      0.793614  
     145A      0.799815   146A      0.802710   147A      0.811078  
     148A      0.811961   149A      0.819016   150A      0.824734  
     151A      0.831071   152A      0.847513   153A      0.848047  
     154A      0.849167   155A      0.868589   156A      0.880544  
     157A      0.886410   158A      0.888133   159A      0.894682  
     160A      0.906089   161A      0.929095   162A      0.929272  
     163A      0.939466   164A      0.947676   165A      0.949307  
     166A      0.970766   167A      0.976919   168A      0.986619  
     169A      0.996652   170A      0.998908   171A      1.013015  
     172A      1.032401   173A      1.033370   174A      1.046914  
     175A      1.051194   176A      1.076248   177A      1.089381  
     178A      1.090262   179A      1.100445   180A      1.122199  
     181A      1.124044   182A      1.130645   183A      1.134362  
     184A      1.140249   185A      1.158740   186A      1.168574  
     187A      1.170661   188A      1.173565   189A      1.192192  
     190A      1.193225   191A      1.200459   192A      1.222300  
     193A      1.235416   194A      1.238804   195A      1.251013  
     196A      1.307542   197A      1.309674   198A      1.318247  
     199A      1.326397   200A      1.329596   201A      1.331148  
     202A      1.346793   203A      1.389198   204A      1.414282  
     205A      1.448373   206A      1.451526   207A      1.455444  
     208A      1.479118   209A      1.486137   210A      1.487189  
     211A      1.488075   212A      1.499211   213A      1.502846  
     214A      1.518252   215A      1.572686   216A      1.574192  
     217A      1.587836   218A      1.635982   219A      1.640505  
     220A      1.648219   221A      1.659225   222A      1.676552  
     223A      1.698052   224A      1.716991   225A      1.746597  
     226A      1.755104   227A      1.783762   228A      1.815727  
     229A      1.893323   230A      1.916137   231A      1.964829  
     232A      1.987674   233A      2.031202   234A      2.070213  
     235A      2.091548   236A      2.101028   237A      2.102752  
     238A      2.119430   239A      2.142953   240A      2.156662  
     241A      2.159176   242A      2.163356   243A      2.190488  
     244A      2.193301   245A      2.194847   246A      2.200380  
     247A      2.202410   248A      2.227626   249A      2.234762  
     250A      2.241190   251A      2.249646   252A      2.310001  
     253A      2.312761   254A      2.319535   255A      2.355229  
     256A      2.384792   257A      2.419195   258A      2.430957  
     259A      2.435398   260A      2.438152   261A      2.438977  
     262A      2.472664   263A      2.486710   264A      2.498306  
     265A      2.519379   266A      2.522395   267A      2.525054  
     268A      2.545982   269A      2.568313   270A      2.584766  
     271A      2.592359   272A      2.606266   273A      2.625958  
     274A      2.665224   275A      2.675409   276A      2.686395  
     277A      2.713985   278A      2.716884   279A      2.718591  
     280A      2.726639   281A      2.767922   282A      2.844014  
     283A      2.865761   284A      2.904022   285A      2.939196  
     286A      2.947213   287A      2.955738   288A      2.973328  
     289A      3.001855   290A      3.017872   291A      3.032186  
     292A      3.058318   293A      3.065216   294A      3.094137  
     295A      3.113855   296A      3.220316   297A      3.245716  
     298A      3.255980   299A      3.284880   300A      3.289669  
     301A      3.321949   302A      3.337729   303A      3.340474  
     304A      3.348647   305A      3.351370   306A      3.366140  
     307A      3.412618   308A      3.413367   309A      3.470772  
     310A      3.501974   311A      3.514920   312A      3.521382  
     313A      3.590655   314A      3.604457   315A      3.605664  
     316A      3.627769   317A      3.700504   318A      3.818944  
     319A      3.830707   320A      3.940989   321A      3.969115  
     322A      3.977236   323A      4.011422   324A      4.194777  
     325A      4.242269   326A      4.253485   327A      4.442008  
     328A      4.546849   329A      4.579297   330A      4.867660  
     331A      4.976163   332A      5.057872   333A      5.261731  
     334A      5.316560   335A      5.630217   336A      5.691344  
     337A      5.827168   338A      5.952652   339A      6.283848  
     340A      6.306909   341A      6.453785   342A      6.631219  
     343A     18.125737   344A     18.207999   345A     19.017594  
     346A     19.343020   347A     25.287081   348A     25.374801  

    Final Occupation by Irrep:
              A 
    DOCC [    21 ]

  @DF-RHF Final Energy:  -262.63994484718683

   => Energetics <=

    Nuclear Repulsion Energy =            212.5517310749281421
    One-Electron Energy =                -775.4594095504635334
    Two-Electron Energy =                 300.2677336283485374
    Total Energy =                       -262.6399448471868254

Computation Completed


Properties will be evaluated at   0.000000,   0.000000,   0.000000 [a0]

Properties computed using the SCF density matrix

  Nuclear Dipole Moment: [e a0]
     X: -1055.1330      Y:  -190.9871      Z: -1019.1135

  Electronic Dipole Moment: [e a0]
     X:  1055.1330      Y:   190.9871      Z:  1019.1135

  Dipole Moment: [e a0]
     X:     0.0000      Y:    -0.0000      Z:    -0.0000     Total:     0.0000

  Dipole Moment: [D]
     X:     0.0000      Y:    -0.0000      Z:    -0.0000     Total:     0.0000


*** tstop() called on atl1-1-01-013-7-r.pace.gatech.edu at Mon Nov 29 16:11:17 2021
Module time:
	user time   =      18.36 seconds =       0.31 minutes
	system time =       0.52 seconds =       0.01 minutes
	total time  =         10 seconds =       0.17 minutes
Total time:
	user time   =      61.63 seconds =       1.03 minutes
	system time =       2.12 seconds =       0.04 minutes
	total time  =         35 seconds =       0.58 minutes
  Constructing Basis Sets for SAPT...

   => Loading Basis Set <=

    Name: (AUG-CC-PVDZ AUX)
    Role: RIFIT
    Keyword: DF_BASIS_SAPT
    atoms 1-2, 11-12  entry N          line   158 file /storage/home/hhive1/csargent30/data/miniconda3/envs/psi4/share/psi4/basis/aug-cc-pvdz-ri.gbs 
    atoms 3-6, 13-16  entry H          line    30 file /storage/home/hhive1/csargent30/data/miniconda3/envs/psi4/share/psi4/basis/aug-cc-pvdz-ri.gbs 
    atoms 7-10, 17-20 entry C          line   112 file /storage/home/hhive1/csargent30/data/miniconda3/envs/psi4/share/psi4/basis/aug-cc-pvdz-ri.gbs 


  //>>>>>>>>>>>>>>>>>>>>>>>>>>>>>>>>>>>//
  //               SAPT0               //
  //<<<<<<<<<<<<<<<<<<<<<<<<<<<<<<<<<<<//


*** tstart() called on atl1-1-01-013-7-r.pace.gatech.edu
*** at Mon Nov 29 16:11:17 2021

        SAPT0  
    Ed Hohenstein
     6 June 2009

      Orbital Information
  --------------------------
    NSO        =       348
    NMO        =       348
    NRI        =      1048
    NOCC A     =        21
    NOCC B     =        21
    FOCC A     =         6
    FOCC B     =         6
    NVIR A     =       327
    NVIR B     =       327

    Elst10,r            =     0.000000986611 [Eh]
    Exch10              =     0.000000000000 [Eh]
    Exch10 (S^2)        =     0.000000000000 [Eh]

    Iter     Energy [mEh]          dE [mEh]         Residual      Time [s]
       1      -0.00000147       0.000001474       0.011797148             0
       2      -0.00000131      -0.000000168       0.002355680             0
       3      -0.00000139       0.000000080       0.001229157             1
       4      -0.00000142       0.000000031       0.000263022             1
       5      -0.00000141      -0.000000006       0.000127437             2
       6      -0.00000141       0.000000001       0.000052091             2
       7      -0.00000141       0.000000000       0.000015391             3
       8      -0.00000141       0.000000000       0.000005055             3
       9      -0.00000141      -0.000000000       0.000001593             3
      10      -0.00000141      -0.000000000       0.000000489             4

    CHF Iterations converged


    Iter     Energy [mEh]          dE [mEh]         Residual      Time [s]
       1      -0.00000180       0.000001800       0.014263861             0
       2      -0.00000159      -0.000000206       0.003256297             1
       3      -0.00000169       0.000000096       0.001657536             1
       4      -0.00000174       0.000000051       0.000434844             1
       5      -0.00000174      -0.000000005       0.000305754             2
       6      -0.00000173      -0.000000004       0.000103423             2
       7      -0.00000173       0.000000001       0.000031677             2
       8      -0.00000173       0.000000000       0.000009320             3
       9      -0.00000173      -0.000000000       0.000003145             3
      10      -0.00000173      -0.000000000       0.000000825             3

    CHF Iterations converged

    Ind20,r (A<-B)      =    -0.000000001411 [Eh]
    Ind20,r (B<-A)      =    -0.000000001734 [Eh]
    Ind20,r             =    -0.000000003145 [Eh]
    Exch-Ind20,r (A<-B) =     0.000000000000 [Eh]
    Exch-Ind20,r (B<-A) =     0.000000000000 [Eh]
    Exch-Ind20,r        =     0.000000000000 [Eh]
    Disp20              =    -0.000000691371 [Eh]
    Disp20 (SS)         =    -0.000000345685 [Eh]
    Disp20 (OS)         =    -0.000000345685 [Eh]
    Exch-Disp20         =     0.000000000000 [Eh]
    Exch-Disp20 (SS)    =     0.000000000000 [Eh]
    Exch-Disp20 (OS)    =     0.000000000000 [Eh]

    SAPT Results 
  --------------------------------------------------------------------------------------------------------
    Electrostatics                  0.00098661 [mEh]       0.00061911 [kcal/mol]       0.00259035 [kJ/mol]
      Elst10,r                      0.00098661 [mEh]       0.00061911 [kcal/mol]       0.00259035 [kJ/mol]

    Exchange                        0.00000000 [mEh]       0.00000000 [kcal/mol]       0.00000000 [kJ/mol]
      Exch10                        0.00000000 [mEh]       0.00000000 [kcal/mol]       0.00000000 [kJ/mol]
      Exch10(S^2)                   0.00000000 [mEh]       0.00000000 [kcal/mol]       0.00000000 [kJ/mol]

    Induction                       0.00001127 [mEh]       0.00000707 [kcal/mol]       0.00002960 [kJ/mol]
      Ind20,r                      -0.00000315 [mEh]      -0.00000197 [kcal/mol]      -0.00000826 [kJ/mol]
      Exch-Ind20,r                  0.00000000 [mEh]       0.00000000 [kcal/mol]       0.00000000 [kJ/mol]
      delta HF,r (2)                0.00001442 [mEh]       0.00000905 [kcal/mol]       0.00003786 [kJ/mol]

    Dispersion                     -0.00069137 [mEh]      -0.00043384 [kcal/mol]      -0.00181519 [kJ/mol]
      Disp20                       -0.00069137 [mEh]      -0.00043384 [kcal/mol]      -0.00181519 [kJ/mol]
      Exch-Disp20                   0.00000000 [mEh]       0.00000000 [kcal/mol]       0.00000000 [kJ/mol]
      Disp20 (SS)                  -0.00034569 [mEh]      -0.00021692 [kcal/mol]      -0.00090760 [kJ/mol]
      Disp20 (OS)                  -0.00034569 [mEh]      -0.00021692 [kcal/mol]      -0.00090760 [kJ/mol]
      Exch-Disp20 (SS)              0.00000000 [mEh]       0.00000000 [kcal/mol]       0.00000000 [kJ/mol]
      Exch-Disp20 (OS)              0.00000000 [mEh]       0.00000000 [kcal/mol]       0.00000000 [kJ/mol]

  Total HF                          0.00099788 [mEh]       0.00062618 [kcal/mol]       0.00261995 [kJ/mol]
  Total SAPT0                       0.00030651 [mEh]       0.00019234 [kcal/mol]       0.00080475 [kJ/mol]

  Special recipe for scaled SAPT0 (see Manual):
    Electrostatics sSAPT0           0.00098661 [mEh]       0.00061911 [kcal/mol]       0.00259035 [kJ/mol]
    Exchange sSAPT0                 0.00000000 [mEh]       0.00000000 [kcal/mol]       0.00000000 [kJ/mol]
    Induction sSAPT0                0.00001127 [mEh]       0.00000707 [kcal/mol]       0.00002960 [kJ/mol]
    Dispersion sSAPT0              -0.00069137 [mEh]      -0.00043384 [kcal/mol]      -0.00181519 [kJ/mol]
  Total sSAPT0                      0.00030651 [mEh]       0.00019234 [kcal/mol]       0.00080475 [kJ/mol]
  --------------------------------------------------------------------------------------------------------

*** tstop() called on atl1-1-01-013-7-r.pace.gatech.edu at Mon Nov 29 16:11:44 2021
Module time:
	user time   =      40.37 seconds =       0.67 minutes
	system time =       8.99 seconds =       0.15 minutes
	total time  =         27 seconds =       0.45 minutes
Total time:
	user time   =     102.23 seconds =       1.70 minutes
	system time =      11.13 seconds =       0.19 minutes
	total time  =         62 seconds =       1.03 minutes


Warning! sapt0 does not have an associated derived wavefunction.The returned wavefunction is the dimer SCF wavefunction.


    Psi4 stopped on: Monday, 29 November 2021 04:11PM
    Psi4 wall time for execution: 0:01:01.50

*** Psi4 exiting successfully. Buy a developer a beer!
