
    -----------------------------------------------------------------------
          Psi4: An Open-Source Ab Initio Electronic Structure Package
                               Psi4 1.4.1 release

                         Git: Rev {HEAD} cd00f19


    D. G. A. Smith, L. A. Burns, A. C. Simmonett, R. M. Parrish,
    M. C. Schieber, R. Galvelis, P. Kraus, H. Kruse, R. Di Remigio,
    A. Alenaizan, A. M. James, S. Lehtola, J. P. Misiewicz, M. Scheurer,
    R. A. Shaw, J. B. Schriber, Y. Xie, Z. L. Glick, D. A. Sirianni,
    J. S. O'Brien, J. M. Waldrop, A. Kumar, E. G. Hohenstein,
    B. P. Pritchard, B. R. Brooks, H. F. Schaefer III, A. Yu. Sokolov,
    K. Patkowski, A. E. DePrince III, U. Bozkaya, R. A. King,
    F. A. Evangelista, J. M. Turney, T. D. Crawford, C. D. Sherrill,
    J. Chem. Phys. 152(18) 184108 (2020). https://doi.org/10.1063/5.0006002

                            Additional Code Authors
    E. T. Seidl, C. L. Janssen, E. F. Valeev, M. L. Leininger,
    J. F. Gonthier, R. M. Richard, H. R. McAlexander, M. Saitow, X. Wang,
    P. Verma, and M. H. Lechner

             Previous Authors, Complete List of Code Contributors,
                       and Citations for Specific Modules
    https://github.com/psi4/psi4/blob/master/codemeta.json
    https://github.com/psi4/psi4/graphs/contributors
    http://psicode.org/psi4manual/master/introduction.html#citing-psifour

    -----------------------------------------------------------------------


    Psi4 started on: Monday, 29 November 2021 04:18PM

    Process ID: 49353
    Host:       atl1-1-01-013-8-r.pace.gatech.edu
    PSIDATADIR: /storage/home/hhive1/csargent30/data/miniconda3/envs/psi4/share/psi4
    Memory:     500.0 MiB
    Threads:    2

  ==> Input File <==

--------------------------------------------------------------------------
# PSI4 file produced by CrystaLattE

# Generated from:               pyrazine.xyz
# Psithon input for N-mer:      2mer-0+267
# Number of atoms per monomer:  [10, 10]
# Number of replicas:           2
# COM priority:                 2.135832506710e-05
# Minimum COM separations:      19.073
# Separation priority:          3.250001532324e-05
# Minimum monomer separations:  16.582
# Cutoff priority:              1.037157600569e-06
# Nuclear repulsion energy:     473.96587969273764

memory 7 GB

molecule Dimer_0_267 {
  N           -1.33084758       0.98032658       0.42627037
  N            3.95377333       0.98032658       0.42627037
  H            3.56713674       4.35218569      -0.94230973
  H           -0.94421098       4.35218569      -0.94230973
  H           -0.94421098      -2.39153253       1.79485047
  H            3.56713674      -2.39153253       1.79485047
  C            2.62292576       2.94097974      -0.42627037
  C            0.00000000       2.94097974      -0.42627037
  C            0.00000000      -0.98032658       1.27881112
  C            2.62292576      -0.98032658       1.27881112
--
  N           -1.33084758     -32.18550076     -13.68280282
  N            3.95377333     -32.18550076     -13.68280282
  H            3.56713674     -28.81364165     -15.05138292
  H           -0.94421098     -28.81364165     -15.05138292
  H           -0.94421098     -35.55735987     -12.31422272
  H            3.56713674     -35.55735987     -12.31422272
  C            2.62292576     -30.22484760     -14.53534357
  C            0.00000000     -30.22484760     -14.53534357
  C            0.00000000     -34.14615392     -12.83026208
  C            2.62292576     -34.14615392     -12.83026208
units = au
no_com
no_reorient
}

set {
  e_convergence 10
  d_convergence 10
  scf_type df
  mp2_type df
  cc_type df
  freeze_core true
}

energy('sapt0/aug-cc-pvdz')

--------------------------------------------------------------------------

  Memory set to   6.519 GiB by Python driver.

Scratch directory: /tmp/

Scratch directory: /tmp/

  //>>>>>>>>>>>>>>>>>>>>>>>>>>>>>>>>>>>//
  //              Dimer HF             //
  //<<<<<<<<<<<<<<<<<<<<<<<<<<<<<<<<<<<//


*** tstart() called on atl1-1-01-013-8-r.pace.gatech.edu
*** at Mon Nov 29 16:18:56 2021

   => Loading Basis Set <=

    Name: AUG-CC-PVDZ
    Role: ORBITAL
    Keyword: BASIS
    atoms 1-2, 11-12  entry N          line   218 file /storage/home/hhive1/csargent30/data/miniconda3/envs/psi4/share/psi4/basis/aug-cc-pvdz.gbs
    atoms 3-6, 13-16  entry H          line    40 file /storage/home/hhive1/csargent30/data/miniconda3/envs/psi4/share/psi4/basis/aug-cc-pvdz.gbs
    atoms 7-10, 17-20 entry C          line   182 file /storage/home/hhive1/csargent30/data/miniconda3/envs/psi4/share/psi4/basis/aug-cc-pvdz.gbs


         ---------------------------------------------------------
                                   SCF
               by Justin Turney, Rob Parrish, Andy Simmonett
                          and Daniel G. A. Smith
                              RHF Reference
                        2 Threads,   6675 MiB Core
         ---------------------------------------------------------

  ==> Geometry <==

    Molecular point group: c1
    Full point group: C1

    Geometry (in Bohr), charge = 0, multiplicity = 1:

       Center              X                  Y                   Z               Mass
    ------------   -----------------  -----------------  -----------------  -----------------
         N           -1.330847580000     0.980326580000     0.426270370000    14.003074004430
         N            3.953773330000     0.980326580000     0.426270370000    14.003074004430
         H            3.567136740000     4.352185690000    -0.942309730000     1.007825032230
         H           -0.944210980000     4.352185690000    -0.942309730000     1.007825032230
         H           -0.944210980000    -2.391532530000     1.794850470000     1.007825032230
         H            3.567136740000    -2.391532530000     1.794850470000     1.007825032230
         C            2.622925760000     2.940979740000    -0.426270370000    12.000000000000
         C            0.000000000000     2.940979740000    -0.426270370000    12.000000000000
         C            0.000000000000    -0.980326580000     1.278811120000    12.000000000000
         C            2.622925760000    -0.980326580000     1.278811120000    12.000000000000
         N           -1.330847580000   -32.185500760000   -13.682802820000    14.003074004430
         N            3.953773330000   -32.185500760000   -13.682802820000    14.003074004430
         H            3.567136740000   -28.813641650000   -15.051382920000     1.007825032230
         H           -0.944210980000   -28.813641650000   -15.051382920000     1.007825032230
         H           -0.944210980000   -35.557359870000   -12.314222720000     1.007825032230
         H            3.567136740000   -35.557359870000   -12.314222720000     1.007825032230
         C            2.622925760000   -30.224847600000   -14.535343570000    12.000000000000
         C            0.000000000000   -30.224847600000   -14.535343570000    12.000000000000
         C            0.000000000000   -34.146153920000   -12.830262080000    12.000000000000
         C            2.622925760000   -34.146153920000   -12.830262080000    12.000000000000

  Running in c1 symmetry.

  Rotational constants: A =      0.05864  B =      0.00061  C =      0.00061 [cm^-1]
  Rotational constants: A =   1757.91993  B =     18.29205  C =     18.20735 [MHz]
  Nuclear repulsion =  473.965879687644076

  Charge       = 0
  Multiplicity = 1
  Electrons    = 84
  Nalpha       = 42
  Nbeta        = 42

  ==> Algorithm <==

  SCF Algorithm Type is DF.
  DIIS enabled.
  MOM disabled.
  Fractional occupation disabled.
  Guess Type is SAD.
  Energy threshold   = 1.00e-10
  Density threshold  = 1.00e-10
  Integral threshold = 1.00e-12

  ==> Primary Basis <==

  Basis Set: AUG-CC-PVDZ
    Blend: AUG-CC-PVDZ
    Number of shells: 148
    Number of basis functions: 348
    Number of Cartesian functions: 372
    Spherical Harmonics?: true
    Max angular momentum: 2

   => Loading Basis Set <=

    Name: (AUG-CC-PVDZ AUX)
    Role: JKFIT
    Keyword: DF_BASIS_SCF
    atoms 1-2, 11-12  entry N          line   212 file /storage/home/hhive1/csargent30/data/miniconda3/envs/psi4/share/psi4/basis/aug-cc-pvdz-jkfit.gbs
    atoms 3-6, 13-16  entry H          line    70 file /storage/home/hhive1/csargent30/data/miniconda3/envs/psi4/share/psi4/basis/aug-cc-pvdz-jkfit.gbs
    atoms 7-10, 17-20 entry C          line   154 file /storage/home/hhive1/csargent30/data/miniconda3/envs/psi4/share/psi4/basis/aug-cc-pvdz-jkfit.gbs

  ==> Integral Setup <==

  ==> DiskDFJK: Density-Fitted J/K Matrices <==

    J tasked:                  Yes
    K tasked:                  Yes
    wK tasked:                  No
    OpenMP threads:              2
    Integrals threads:           2
    Memory [MiB]:             5006
    Algorithm:                Core
    Integral Cache:           SAVE
    Schwarz Cutoff:          1E-12
    Fitting Condition:       1E-10

   => Auxiliary Basis Set <=

  Basis Set: (AUG-CC-PVDZ AUX)
    Blend: AUG-CC-PVDZ-JKFIT
    Number of shells: 432
    Number of basis functions: 1288
    Number of Cartesian functions: 1492
    Spherical Harmonics?: true
    Max angular momentum: 3

  Minimum eigenvalue in the overlap matrix is 9.4895892202E-06.
  Reciprocal condition number of the overlap matrix is 7.4015684476E-07.
    Using symmetric orthogonalization.

  ==> Pre-Iterations <==

  SCF Guess: Superposition of Atomic Densities via on-the-fly atomic UHF (no occupation information).

   -------------------------
    Irrep   Nso     Nmo
   -------------------------
     A        348     348
   -------------------------
    Total     348     348
   -------------------------

  ==> Iterations <==

                           Total Energy        Delta E     RMS |[F,P]|

   @DF-RHF iter SAD:  -524.65046252008074   -5.24650e+02   0.00000e+00
   @DF-RHF iter   1:  -525.07881755120843   -4.28355e-01   1.58371e-03 DIIS
   @DF-RHF iter   2:  -525.25757813791461   -1.78761e-01   5.80758e-04 DIIS
   @DF-RHF iter   3:  -525.27724665440928   -1.96685e-02   1.81369e-04 DIIS
   @DF-RHF iter   4:  -525.27969614328913   -2.44949e-03   5.34011e-05 DIIS
   @DF-RHF iter   5:  -525.27987534849342   -1.79205e-04   1.06853e-05 DIIS
   @DF-RHF iter   6:  -525.27988844952631   -1.31010e-05   3.46861e-06 DIIS
   @DF-RHF iter   7:  -525.27989035435201   -1.90483e-06   9.05285e-07 DIIS
   @DF-RHF iter   8:  -525.27989050212841   -1.47776e-07   1.40249e-07 DIIS
   @DF-RHF iter   9:  -525.27989050610063   -3.97222e-09   2.66220e-08 DIIS
   @DF-RHF iter  10:  -525.27989050624274   -1.42109e-10   4.52214e-09 DIIS
   @DF-RHF iter  11:  -525.27989050624637   -3.63798e-12   8.07906e-10 DIIS
   @DF-RHF iter  12:  -525.27989050624626    1.13687e-13   3.75751e-10 DIIS
   @DF-RHF iter  13:  -525.27989050624649   -2.27374e-13   1.06152e-10 DIIS
   @DF-RHF iter  14:  -525.27989050624649    0.00000e+00   1.96644e-11 DIIS
  Energy and wave function converged.


  ==> Post-Iterations <==

    Orbital Energies [Eh]
    ---------------------

    Doubly Occupied:

       1A    -15.598149     2A    -15.598149     3A    -15.598130
       4A    -15.598130     5A    -11.274315     6A    -11.274315
       7A    -11.274271     8A    -11.274271     9A    -11.273051
      10A    -11.273051    11A    -11.273046    12A    -11.273046
      13A     -1.313424    14A     -1.313424    15A     -1.224253
      16A     -1.224253    17A     -1.076880    18A     -1.076880
      19A     -0.922739    20A     -0.922739    21A     -0.919359
      22A     -0.919359    23A     -0.760713    24A     -0.760713
      25A     -0.738478    26A     -0.738478    27A     -0.706291
      28A     -0.706291    29A     -0.647764    30A     -0.647764
      31A     -0.580787    32A     -0.580787    33A     -0.574447
      34A     -0.574447    35A     -0.497189    36A     -0.497189
      37A     -0.434365    38A     -0.434365    39A     -0.415932
      40A     -0.415932    41A     -0.360002    42A     -0.360002

    Virtual:

      43A      0.034423    44A      0.034426    45A      0.040667
      46A      0.040674    47A      0.048318    48A      0.048323
      49A      0.058529    50A      0.058536    51A      0.067032
      52A      0.067032    53A      0.099342    54A      0.099342
      55A      0.100874    56A      0.100874    57A      0.114116
      58A      0.114117    59A      0.114868    60A      0.114868
      61A      0.123707    62A      0.123714    63A      0.125242
      64A      0.125242    65A      0.128596    66A      0.128596
      67A      0.132806    68A      0.132806    69A      0.158121
      70A      0.158140    71A      0.161005    72A      0.161013
      73A      0.161260    74A      0.161269    75A      0.163842
      76A      0.163852    77A      0.175113    78A      0.175118
      79A      0.186839    80A      0.186839    81A      0.203826
      82A      0.203827    83A      0.212458    84A      0.212460
      85A      0.250436    86A      0.250436    87A      0.267682
      88A      0.267682    89A      0.277976    90A      0.277980
      91A      0.287734    92A      0.287734    93A      0.293133
      94A      0.293133    95A      0.295675    96A      0.295689
      97A      0.314762    98A      0.314763    99A      0.320380
     100A      0.320380   101A      0.355354   102A      0.355361
     103A      0.357831   104A      0.357831   105A      0.364584
     106A      0.364585   107A      0.382507   108A      0.382512
     109A      0.398813   110A      0.398817   111A      0.409820
     112A      0.409825   113A      0.425381   114A      0.425385
     115A      0.433848   116A      0.433848   117A      0.437133
     118A      0.437147   119A      0.452019   120A      0.452020
     121A      0.471405   122A      0.471407   123A      0.492064
     124A      0.492064   125A      0.504786   126A      0.504786
     127A      0.514833   128A      0.514833   129A      0.524472
     130A      0.524472   131A      0.528587   132A      0.528591
     133A      0.554501   134A      0.554501   135A      0.570460
     136A      0.570460   137A      0.587458   138A      0.587458
     139A      0.591428   140A      0.591428   141A      0.593723
     142A      0.593723   143A      0.608856   144A      0.608857
     145A      0.643443   146A      0.643443   147A      0.644246
     148A      0.644248   149A      0.685060   150A      0.685060
     151A      0.687681   152A      0.687681   153A      0.689855
     154A      0.689856   155A      0.690263   156A      0.690270
     157A      0.694754   158A      0.694755   159A      0.703754
     160A      0.703760   161A      0.746484   162A      0.746485
     163A      0.754741   164A      0.754741   165A      0.766890
     166A      0.766890   167A      0.781328   168A      0.781328
     169A      0.799740   170A      0.799741   171A      0.802631
     172A      0.802632   173A      0.818937   174A      0.818937
     175A      0.830993   176A      0.830993   177A      0.847438
     178A      0.847439   179A      0.880468   180A      0.880468
     181A      0.886335   182A      0.886335   183A      0.894603
     184A      0.894603   185A      0.929196   186A      0.929196
     187A      0.939388   188A      0.939389   189A      0.949230
     190A      0.949232   191A      0.996576   192A      0.996576
     193A      0.998833   194A      0.998833   195A      1.012939
     196A      1.012939   197A      1.033293   198A      1.033295
     199A      1.051117   200A      1.051117   201A      1.089305
     202A      1.089305   203A      1.100369   204A      1.100369
     205A      1.122120   206A      1.122124   207A      1.123966
     208A      1.123966   209A      1.134285   210A      1.134286
     211A      1.158665   212A      1.158666   213A      1.173487
     214A      1.173487   215A      1.235340   216A      1.235341
     217A      1.238730   218A      1.238730   219A      1.309596
     220A      1.309597   221A      1.331071   222A      1.331071
     223A      1.414205   224A      1.414206   225A      1.451449
     226A      1.451450   227A      1.486061   228A      1.486061
     229A      1.487998   230A      1.487999   231A      1.499133
     232A      1.499135   233A      1.502767   234A      1.502768
     235A      1.518176   236A      1.518176   237A      1.572609
     238A      1.572609   239A      1.574114   240A      1.574116
     241A      1.587757   242A      1.587760   243A      1.635905
     244A      1.635906   245A      1.640428   246A      1.640428
     247A      1.648142   248A      1.648144   249A      1.676475
     250A      1.676475   251A      1.716913   252A      1.716913
     253A      1.746520   254A      1.746520   255A      1.755027
     256A      1.755027   257A      1.783685   258A      1.783686
     259A      1.815650   260A      1.815650   261A      1.893246
     262A      1.893246   263A      1.916061   264A      1.916061
     265A      1.964752   266A      1.964752   267A      1.987597
     268A      1.987598   269A      2.031126   270A      2.031126
     271A      2.091471   272A      2.091472   273A      2.100950
     274A      2.100952   275A      2.142877   276A      2.142877
     277A      2.163279   278A      2.163279   279A      2.190412
     280A      2.190412   281A      2.193225   282A      2.193227
     283A      2.200304   284A      2.200304   285A      2.202334
     286A      2.202334   287A      2.227549   288A      2.227549
     289A      2.312684   290A      2.312684   291A      2.355152
     292A      2.355153   293A      2.430880   294A      2.430880
     295A      2.438900   296A      2.438900   297A      2.519303
     298A      2.519303   299A      2.522318   300A      2.522318
     301A      2.584690   302A      2.584690   303A      2.606189
     304A      2.606190   305A      2.665148   306A      2.665148
     307A      2.675332   308A      2.675332   309A      2.686317
     310A      2.686318   311A      2.713906   312A      2.713908
     313A      2.718515   314A      2.718515   315A      2.843937
     316A      2.843937   317A      2.865684   318A      2.865684
     319A      2.939119   320A      2.939120   321A      3.001779
     322A      3.001779   323A      3.017794   324A      3.017795
     325A      3.032109   326A      3.032110   327A      3.094060
     328A      3.094061   329A      3.220236   330A      3.220243
     331A      3.255903   332A      3.255903   333A      3.284803
     334A      3.284804   335A      3.366063   336A      3.366063
     337A      3.413291   338A      3.413292   339A      3.514844
     340A      3.514844   341A      3.590578   342A      3.590579
     343A      3.627692   344A      3.627692   345A      3.977159
     346A      3.977161   347A      4.253408   348A      4.253409

    Final Occupation by Irrep:
              A
    DOCC [    42 ]

  @DF-RHF Final Energy:  -525.27989050624649

   => Energetics <=

    Nuclear Repulsion Energy =            473.9658796876440761
    One-Electron Energy =               -1648.6372038410552250
    Two-Electron Energy =                 649.3914336471647175
    Total Energy =                       -525.2798905062464883

Computation Completed


Properties will be evaluated at   0.000000,   0.000000,   0.000000 [a0]

Properties computed using the SCF density matrix

  Nuclear Dipole Moment: [e a0]
     X:   110.1629      Y: -1310.6173      Z:  -556.7744

  Electronic Dipole Moment: [e a0]
     X:  -110.1629      Y:  1310.6173      Z:   556.7744

  Dipole Moment: [e a0]
     X:     0.0000      Y:     0.0000      Z:    -0.0000     Total:     0.0000

  Dipole Moment: [D]
     X:     0.0000      Y:     0.0000      Z:    -0.0000     Total:     0.0000


*** tstop() called on atl1-1-01-013-8-r.pace.gatech.edu at Mon Nov 29 16:19:09 2021
Module time:
	user time   =      22.77 seconds =       0.38 minutes
	system time =       0.93 seconds =       0.02 minutes
	total time  =         13 seconds =       0.22 minutes
Total time:
	user time   =      22.77 seconds =       0.38 minutes
	system time =       0.93 seconds =       0.02 minutes
	total time  =         13 seconds =       0.22 minutes

  //>>>>>>>>>>>>>>>>>>>>>>>>>>>>>>>>>>>//
  //            Monomer A HF           //
  //<<<<<<<<<<<<<<<<<<<<<<<<<<<<<<<<<<<//


*** tstart() called on atl1-1-01-013-8-r.pace.gatech.edu
*** at Mon Nov 29 16:19:09 2021

   => Loading Basis Set <=

    Name: AUG-CC-PVDZ
    Role: ORBITAL
    Keyword: BASIS
    atoms 1-2, 11-12  entry N          line   218 file /storage/home/hhive1/csargent30/data/miniconda3/envs/psi4/share/psi4/basis/aug-cc-pvdz.gbs
    atoms 3-6, 13-16  entry H          line    40 file /storage/home/hhive1/csargent30/data/miniconda3/envs/psi4/share/psi4/basis/aug-cc-pvdz.gbs
    atoms 7-10, 17-20 entry C          line   182 file /storage/home/hhive1/csargent30/data/miniconda3/envs/psi4/share/psi4/basis/aug-cc-pvdz.gbs


         ---------------------------------------------------------
                                   SCF
               by Justin Turney, Rob Parrish, Andy Simmonett
                          and Daniel G. A. Smith
                              RHF Reference
                        2 Threads,   6675 MiB Core
         ---------------------------------------------------------

  ==> Geometry <==

    Molecular point group: c1
    Full point group: C1

    Geometry (in Bohr), charge = 0, multiplicity = 1:

       Center              X                  Y                   Z               Mass
    ------------   -----------------  -----------------  -----------------  -----------------
         N           -1.330847580000     0.980326580000     0.426270370000    14.003074004430
         N            3.953773330000     0.980326580000     0.426270370000    14.003074004430
         H            3.567136740000     4.352185690000    -0.942309730000     1.007825032230
         H           -0.944210980000     4.352185690000    -0.942309730000     1.007825032230
         H           -0.944210980000    -2.391532530000     1.794850470000     1.007825032230
         H            3.567136740000    -2.391532530000     1.794850470000     1.007825032230
         C            2.622925760000     2.940979740000    -0.426270370000    12.000000000000
         C            0.000000000000     2.940979740000    -0.426270370000    12.000000000000
         C            0.000000000000    -0.980326580000     1.278811120000    12.000000000000
         C            2.622925760000    -0.980326580000     1.278811120000    12.000000000000
      Gh(N)          -1.330847580000   -32.185500760000   -13.682802820000    14.003074004430
      Gh(N)           3.953773330000   -32.185500760000   -13.682802820000    14.003074004430
      Gh(H)           3.567136740000   -28.813641650000   -15.051382920000     1.007825032230
      Gh(H)          -0.944210980000   -28.813641650000   -15.051382920000     1.007825032230
      Gh(H)          -0.944210980000   -35.557359870000   -12.314222720000     1.007825032230
      Gh(H)           3.567136740000   -35.557359870000   -12.314222720000     1.007825032230
      Gh(C)           2.622925760000   -30.224847600000   -14.535343570000    12.000000000000
      Gh(C)           0.000000000000   -30.224847600000   -14.535343570000    12.000000000000
      Gh(C)           0.000000000000   -34.146153920000   -12.830262080000    12.000000000000
      Gh(C)           2.622925760000   -34.146153920000   -12.830262080000    12.000000000000

  Running in c1 symmetry.

  Rotational constants: A =      0.05864  B =      0.00061  C =      0.00061 [cm^-1]
  Rotational constants: A =   1757.91993  B =     18.29205  C =     18.20735 [MHz]
  Nuclear repulsion =  212.551731110485349

  Charge       = 0
  Multiplicity = 1
  Electrons    = 42
  Nalpha       = 21
  Nbeta        = 21

  ==> Algorithm <==

  SCF Algorithm Type is DF.
  DIIS enabled.
  MOM disabled.
  Fractional occupation disabled.
  Guess Type is SAD.
  Energy threshold   = 1.00e-10
  Density threshold  = 1.00e-10
  Integral threshold = 1.00e-12

  ==> Primary Basis <==

  Basis Set: AUG-CC-PVDZ
    Blend: AUG-CC-PVDZ
    Number of shells: 148
    Number of basis functions: 348
    Number of Cartesian functions: 372
    Spherical Harmonics?: true
    Max angular momentum: 2

   => Loading Basis Set <=

    Name: (AUG-CC-PVDZ AUX)
    Role: JKFIT
    Keyword: DF_BASIS_SCF
    atoms 1-2, 11-12  entry N          line   212 file /storage/home/hhive1/csargent30/data/miniconda3/envs/psi4/share/psi4/basis/aug-cc-pvdz-jkfit.gbs
    atoms 3-6, 13-16  entry H          line    70 file /storage/home/hhive1/csargent30/data/miniconda3/envs/psi4/share/psi4/basis/aug-cc-pvdz-jkfit.gbs
    atoms 7-10, 17-20 entry C          line   154 file /storage/home/hhive1/csargent30/data/miniconda3/envs/psi4/share/psi4/basis/aug-cc-pvdz-jkfit.gbs

  ==> Integral Setup <==

  ==> DiskDFJK: Density-Fitted J/K Matrices <==

    J tasked:                  Yes
    K tasked:                  Yes
    wK tasked:                  No
    OpenMP threads:              2
    Integrals threads:           2
    Memory [MiB]:             5006
    Algorithm:                Core
    Integral Cache:           LOAD
    Schwarz Cutoff:          1E-12
    Fitting Condition:       1E-10

   => Auxiliary Basis Set <=

  Basis Set: (AUG-CC-PVDZ AUX)
    Blend: AUG-CC-PVDZ-JKFIT
    Number of shells: 432
    Number of basis functions: 1288
    Number of Cartesian functions: 1492
    Spherical Harmonics?: true
    Max angular momentum: 3

  Minimum eigenvalue in the overlap matrix is 9.4895892202E-06.
  Reciprocal condition number of the overlap matrix is 7.4015684476E-07.
    Using symmetric orthogonalization.

  ==> Pre-Iterations <==

  SCF Guess: Superposition of Atomic Densities via on-the-fly atomic UHF (no occupation information).

   -------------------------
    Irrep   Nso     Nmo
   -------------------------
     A        348     348
   -------------------------
    Total     348     348
   -------------------------

  ==> Iterations <==

                           Total Energy        Delta E     RMS |[F,P]|

   @DF-RHF iter SAD:  -262.32523125927315   -2.62325e+02   0.00000e+00
   @DF-RHF iter   1:  -262.53940798246214   -2.14177e-01   1.11985e-03 DIIS
   @DF-RHF iter   2:  -262.62878837513063   -8.93804e-02   4.10664e-04 DIIS
   @DF-RHF iter   3:  -262.63862291968184   -9.83454e-03   1.28248e-04 DIIS
   @DF-RHF iter   4:  -262.63984767294920   -1.22475e-03   3.77599e-05 DIIS
   @DF-RHF iter   5:  -262.63993727341193   -8.96005e-05   7.55558e-06 DIIS
   @DF-RHF iter   6:  -262.63994382367099   -6.55026e-06   2.45264e-06 DIIS
   @DF-RHF iter   7:  -262.63994477604507   -9.52374e-07   6.40130e-07 DIIS
   @DF-RHF iter   8:  -262.63994484993299   -7.38879e-08   9.91693e-08 DIIS
   @DF-RHF iter   9:  -262.63994485191859   -1.98560e-09   1.88228e-08 DIIS
   @DF-RHF iter  10:  -262.63994485198958   -7.09974e-11   3.19151e-09 DIIS
   @DF-RHF iter  11:  -262.63994485199237   -2.78533e-12   5.22317e-10 DIIS
   @DF-RHF iter  12:  -262.63994485199157    7.95808e-13   9.54360e-11 DIIS
  Energy and wave function converged.


  ==> Post-Iterations <==

    Orbital Energies [Eh]
    ---------------------

    Doubly Occupied:

       1A    -15.598072     2A    -15.598053     3A    -11.274239
       4A    -11.274194     5A    -11.272975     6A    -11.272969
       7A     -1.313347     8A     -1.224176     9A     -1.076803
      10A     -0.922662    11A     -0.919282    12A     -0.760637
      13A     -0.738402    14A     -0.706214    15A     -0.647687
      16A     -0.580711    17A     -0.574369    18A     -0.497113
      19A     -0.434288    20A     -0.415855    21A     -0.359924

    Virtual:

      22A      0.022284    23A      0.034497    24A      0.039364
      25A      0.040738    26A      0.041038    27A      0.048383
      28A      0.058591    29A      0.058715    30A      0.067113
      31A      0.079519    32A      0.084902    33A      0.099419
      34A      0.100948    35A      0.103855    36A      0.108355
      37A      0.108706    38A      0.114201    39A      0.114951
      40A      0.122339    41A      0.123776    42A      0.125322
      43A      0.125442    44A      0.128661    45A      0.130783
      46A      0.132889    47A      0.134009    48A      0.151966
      49A      0.152882    50A      0.158199    51A      0.159189
      52A      0.161084    53A      0.161326    54A      0.163914
      55A      0.175179    56A      0.176605    57A      0.186918
      58A      0.197652    59A      0.203747    60A      0.203908
      61A      0.206506    62A      0.212538    63A      0.222231
      64A      0.233463    65A      0.239291    66A      0.250517
      67A      0.255064    68A      0.267756    69A      0.270627
      70A      0.278056    71A      0.287812    72A      0.293207
      73A      0.295748    74A      0.302172    75A      0.314832
      76A      0.320457    77A      0.320491    78A      0.328010
      79A      0.331146    80A      0.343971    81A      0.355428
      82A      0.357908    83A      0.364661    84A      0.380350
      85A      0.382582    86A      0.385480    87A      0.398891
      88A      0.401122    89A      0.409895    90A      0.419123
      91A      0.424793    92A      0.425453    93A      0.433925
      94A      0.437212    95A      0.441780    96A      0.452092
      97A      0.460502    98A      0.460950    99A      0.471483
     100A      0.475932   101A      0.478669   102A      0.492140
     103A      0.504862   104A      0.507672   105A      0.514914
     106A      0.523619   107A      0.524547   108A      0.528668
     109A      0.535580   110A      0.554577   111A      0.557693
     112A      0.561360   113A      0.564342   114A      0.570535
     115A      0.581756   116A      0.587535   117A      0.591506
     118A      0.593799   119A      0.595863   120A      0.608929
     121A      0.614986   122A      0.620004   123A      0.636210
     124A      0.643517   125A      0.644321   126A      0.649203
     127A      0.651336   128A      0.679263   129A      0.685136
     130A      0.685166   131A      0.687758   132A      0.689932
     133A      0.690342   134A      0.694828   135A      0.703829
     136A      0.719739   137A      0.728235   138A      0.746558
     139A      0.746632   140A      0.754817   141A      0.766965
     142A      0.775526   143A      0.781406   144A      0.793480
     145A      0.799815   146A      0.802710   147A      0.810940
     148A      0.811826   149A      0.819016   150A      0.824600
     151A      0.831071   152A      0.847513   153A      0.847907
     154A      0.849032   155A      0.868453   156A      0.880544
     157A      0.886410   158A      0.887995   159A      0.894682
     160A      0.905949   161A      0.928962   162A      0.929272
     163A      0.939466   164A      0.947538   165A      0.949307
     166A      0.970625   167A      0.976780   168A      0.986484
     169A      0.996652   170A      0.998908   171A      1.013015
     172A      1.032268   173A      1.033370   174A      1.046775
     175A      1.051194   176A      1.076111   177A      1.089381
     178A      1.090123   179A      1.100445   180A      1.122199
     181A      1.124044   182A      1.130510   183A      1.134362
     184A      1.140111   185A      1.158740   186A      1.168434
     187A      1.170522   188A      1.173565   189A      1.192053
     190A      1.193086   191A      1.200316   192A      1.222164
     193A      1.235416   194A      1.238804   195A      1.250873
     196A      1.307401   197A      1.309673   198A      1.318104
     199A      1.326260   200A      1.329456   201A      1.331148
     202A      1.346652   203A      1.389062   204A      1.414282
     205A      1.448236   206A      1.451526   207A      1.455305
     208A      1.478980   209A      1.486137   210A      1.487051
     211A      1.488075   212A      1.499211   213A      1.502846
     214A      1.518252   215A      1.572686   216A      1.574192
     217A      1.587836   218A      1.635982   219A      1.640505
     220A      1.648219   221A      1.659088   222A      1.676552
     223A      1.697912   224A      1.716991   225A      1.746597
     226A      1.755104   227A      1.783762   228A      1.815727
     229A      1.893323   230A      1.916137   231A      1.964829
     232A      1.987674   233A      2.031202   234A      2.070075
     235A      2.091548   236A      2.101028   237A      2.102611
     238A      2.119291   239A      2.142953   240A      2.156524
     241A      2.159038   242A      2.163355   243A      2.190488
     244A      2.193301   245A      2.194708   246A      2.200380
     247A      2.202410   248A      2.227626   249A      2.234621
     250A      2.241051   251A      2.249508   252A      2.309864
     253A      2.312761   254A      2.319393   255A      2.355229
     256A      2.384653   257A      2.419058   258A      2.430957
     259A      2.435262   260A      2.438015   261A      2.438977
     262A      2.472524   263A      2.486573   264A      2.498170
     265A      2.519379   266A      2.522395   267A      2.524916
     268A      2.545843   269A      2.568176   270A      2.584766
     271A      2.592221   272A      2.606266   273A      2.625822
     274A      2.665224   275A      2.675409   276A      2.686395
     277A      2.713985   278A      2.716746   279A      2.718591
     280A      2.726499   281A      2.767782   282A      2.844014
     283A      2.865761   284A      2.903886   285A      2.939196
     286A      2.947076   287A      2.955599   288A      2.973189
     289A      3.001855   290A      3.017872   291A      3.032186
     292A      3.058179   293A      3.065079   294A      3.094137
     295A      3.113719   296A      3.220316   297A      3.245578
     298A      3.255980   299A      3.284880   300A      3.289529
     301A      3.321810   302A      3.337589   303A      3.340337
     304A      3.348507   305A      3.351231   306A      3.366140
     307A      3.412479   308A      3.413367   309A      3.470636
     310A      3.501834   311A      3.514920   312A      3.521242
     313A      3.590655   314A      3.604317   315A      3.605523
     316A      3.627769   317A      3.700364   318A      3.818804
     319A      3.830567   320A      3.940849   321A      3.968976
     322A      3.977236   323A      4.011283   324A      4.194638
     325A      4.242130   326A      4.253485   327A      4.441869
     328A      4.546709   329A      4.579156   330A      4.867519
     331A      4.976024   332A      5.057732   333A      5.261592
     334A      5.316419   335A      5.630078   336A      5.691204
     337A      5.827028   338A      5.952514   339A      6.283708
     340A      6.306770   341A      6.453647   342A      6.631081
     343A     18.125597   344A     18.207859   345A     19.017455
     346A     19.342880   347A     25.286941   348A     25.374661

    Final Occupation by Irrep:
              A
    DOCC [    21 ]

  @DF-RHF Final Energy:  -262.63994485199157

   => Energetics <=

    Nuclear Repulsion Energy =            212.5517311104853491
    One-Electron Energy =                -775.4594096350381278
    Two-Electron Energy =                 300.2677336725612349
    Total Energy =                       -262.6399448519915722

Computation Completed


Properties will be evaluated at   0.000000,   0.000000,   0.000000 [a0]

Properties computed using the SCF density matrix

  Nuclear Dipole Moment: [e a0]
     X:    55.0814      Y:    41.1737      Z:    17.9034

  Electronic Dipole Moment: [e a0]
     X:   -55.0814      Y:   -41.1737      Z:   -17.9034

  Dipole Moment: [e a0]
     X:     0.0000      Y:     0.0000      Z:    -0.0000     Total:     0.0000

  Dipole Moment: [D]
     X:     0.0000      Y:     0.0000      Z:    -0.0000     Total:     0.0000


*** tstop() called on atl1-1-01-013-8-r.pace.gatech.edu at Mon Nov 29 16:19:16 2021
Module time:
	user time   =      13.78 seconds =       0.23 minutes
	system time =       0.46 seconds =       0.01 minutes
	total time  =          7 seconds =       0.12 minutes
Total time:
	user time   =      36.56 seconds =       0.61 minutes
	system time =       1.39 seconds =       0.02 minutes
	total time  =         20 seconds =       0.33 minutes

  //>>>>>>>>>>>>>>>>>>>>>>>>>>>>>>>>>>>//
  //            Monomer B HF           //
  //<<<<<<<<<<<<<<<<<<<<<<<<<<<<<<<<<<<//


*** tstart() called on atl1-1-01-013-8-r.pace.gatech.edu
*** at Mon Nov 29 16:19:16 2021

   => Loading Basis Set <=

    Name: AUG-CC-PVDZ
    Role: ORBITAL
    Keyword: BASIS
    atoms 1-2, 11-12  entry N          line   218 file /storage/home/hhive1/csargent30/data/miniconda3/envs/psi4/share/psi4/basis/aug-cc-pvdz.gbs
    atoms 3-6, 13-16  entry H          line    40 file /storage/home/hhive1/csargent30/data/miniconda3/envs/psi4/share/psi4/basis/aug-cc-pvdz.gbs
    atoms 7-10, 17-20 entry C          line   182 file /storage/home/hhive1/csargent30/data/miniconda3/envs/psi4/share/psi4/basis/aug-cc-pvdz.gbs


         ---------------------------------------------------------
                                   SCF
               by Justin Turney, Rob Parrish, Andy Simmonett
                          and Daniel G. A. Smith
                              RHF Reference
                        2 Threads,   6675 MiB Core
         ---------------------------------------------------------

  ==> Geometry <==

    Molecular point group: c1
    Full point group: C1

    Geometry (in Bohr), charge = 0, multiplicity = 1:

       Center              X                  Y                   Z               Mass
    ------------   -----------------  -----------------  -----------------  -----------------
      Gh(N)          -1.330847580000     0.980326580000     0.426270370000    14.003074004430
      Gh(N)           3.953773330000     0.980326580000     0.426270370000    14.003074004430
      Gh(H)           3.567136740000     4.352185690000    -0.942309730000     1.007825032230
      Gh(H)          -0.944210980000     4.352185690000    -0.942309730000     1.007825032230
      Gh(H)          -0.944210980000    -2.391532530000     1.794850470000     1.007825032230
      Gh(H)           3.567136740000    -2.391532530000     1.794850470000     1.007825032230
      Gh(C)           2.622925760000     2.940979740000    -0.426270370000    12.000000000000
      Gh(C)           0.000000000000     2.940979740000    -0.426270370000    12.000000000000
      Gh(C)           0.000000000000    -0.980326580000     1.278811120000    12.000000000000
      Gh(C)           2.622925760000    -0.980326580000     1.278811120000    12.000000000000
         N           -1.330847580000   -32.185500760000   -13.682802820000    14.003074004430
         N            3.953773330000   -32.185500760000   -13.682802820000    14.003074004430
         H            3.567136740000   -28.813641650000   -15.051382920000     1.007825032230
         H           -0.944210980000   -28.813641650000   -15.051382920000     1.007825032230
         H           -0.944210980000   -35.557359870000   -12.314222720000     1.007825032230
         H            3.567136740000   -35.557359870000   -12.314222720000     1.007825032230
         C            2.622925760000   -30.224847600000   -14.535343570000    12.000000000000
         C            0.000000000000   -30.224847600000   -14.535343570000    12.000000000000
         C            0.000000000000   -34.146153920000   -12.830262080000    12.000000000000
         C            2.622925760000   -34.146153920000   -12.830262080000    12.000000000000

  Running in c1 symmetry.

  Rotational constants: A =      0.05864  B =      0.00061  C =      0.00061 [cm^-1]
  Rotational constants: A =   1757.91993  B =     18.29205  C =     18.20735 [MHz]
  Nuclear repulsion =  212.551731110485264

  Charge       = 0
  Multiplicity = 1
  Electrons    = 42
  Nalpha       = 21
  Nbeta        = 21

  ==> Algorithm <==

  SCF Algorithm Type is DF.
  DIIS enabled.
  MOM disabled.
  Fractional occupation disabled.
  Guess Type is SAD.
  Energy threshold   = 1.00e-10
  Density threshold  = 1.00e-10
  Integral threshold = 1.00e-12

  ==> Primary Basis <==

  Basis Set: AUG-CC-PVDZ
    Blend: AUG-CC-PVDZ
    Number of shells: 148
    Number of basis functions: 348
    Number of Cartesian functions: 372
    Spherical Harmonics?: true
    Max angular momentum: 2

   => Loading Basis Set <=

    Name: (AUG-CC-PVDZ AUX)
    Role: JKFIT
    Keyword: DF_BASIS_SCF
    atoms 1-2, 11-12  entry N          line   212 file /storage/home/hhive1/csargent30/data/miniconda3/envs/psi4/share/psi4/basis/aug-cc-pvdz-jkfit.gbs
    atoms 3-6, 13-16  entry H          line    70 file /storage/home/hhive1/csargent30/data/miniconda3/envs/psi4/share/psi4/basis/aug-cc-pvdz-jkfit.gbs
    atoms 7-10, 17-20 entry C          line   154 file /storage/home/hhive1/csargent30/data/miniconda3/envs/psi4/share/psi4/basis/aug-cc-pvdz-jkfit.gbs

  ==> Integral Setup <==

  ==> DiskDFJK: Density-Fitted J/K Matrices <==

    J tasked:                  Yes
    K tasked:                  Yes
    wK tasked:                  No
    OpenMP threads:              2
    Integrals threads:           2
    Memory [MiB]:             5006
    Algorithm:                Core
    Integral Cache:           LOAD
    Schwarz Cutoff:          1E-12
    Fitting Condition:       1E-10

   => Auxiliary Basis Set <=

  Basis Set: (AUG-CC-PVDZ AUX)
    Blend: AUG-CC-PVDZ-JKFIT
    Number of shells: 432
    Number of basis functions: 1288
    Number of Cartesian functions: 1492
    Spherical Harmonics?: true
    Max angular momentum: 3

  Minimum eigenvalue in the overlap matrix is 9.4895892202E-06.
  Reciprocal condition number of the overlap matrix is 7.4015684476E-07.
    Using symmetric orthogonalization.

  ==> Pre-Iterations <==

  SCF Guess: Superposition of Atomic Densities via on-the-fly atomic UHF (no occupation information).

   -------------------------
    Irrep   Nso     Nmo
   -------------------------
     A        348     348
   -------------------------
    Total     348     348
   -------------------------

  ==> Iterations <==

                           Total Energy        Delta E     RMS |[F,P]|

   @DF-RHF iter SAD:  -262.32523126023591   -2.62325e+02   0.00000e+00
   @DF-RHF iter   1:  -262.53940798337442   -2.14177e-01   1.11985e-03 DIIS
   @DF-RHF iter   2:  -262.62878837604148   -8.93804e-02   4.10664e-04 DIIS
   @DF-RHF iter   3:  -262.63862292059281   -9.83454e-03   1.28248e-04 DIIS
   @DF-RHF iter   4:  -262.63984767386103   -1.22475e-03   3.77599e-05 DIIS
   @DF-RHF iter   5:  -262.63993727432262   -8.96005e-05   7.55558e-06 DIIS
   @DF-RHF iter   6:  -262.63994382458236   -6.55026e-06   2.45264e-06 DIIS
   @DF-RHF iter   7:  -262.63994477695559   -9.52373e-07   6.40130e-07 DIIS
   @DF-RHF iter   8:  -262.63994485084430   -7.38887e-08   9.91693e-08 DIIS
   @DF-RHF iter   9:  -262.63994485282996   -1.98565e-09   1.88228e-08 DIIS
   @DF-RHF iter  10:  -262.63994485290004   -7.00879e-11   3.19151e-09 DIIS
   @DF-RHF iter  11:  -262.63994485290357   -3.52429e-12   5.22317e-10 DIIS
   @DF-RHF iter  12:  -262.63994485290294    6.25278e-13   9.54359e-11 DIIS
  Energy and wave function converged.


  ==> Post-Iterations <==

    Orbital Energies [Eh]
    ---------------------

    Doubly Occupied:

       1A    -15.598072     2A    -15.598053     3A    -11.274239
       4A    -11.274194     5A    -11.272975     6A    -11.272969
       7A     -1.313347     8A     -1.224176     9A     -1.076803
      10A     -0.922662    11A     -0.919282    12A     -0.760637
      13A     -0.738402    14A     -0.706214    15A     -0.647687
      16A     -0.580711    17A     -0.574369    18A     -0.497113
      19A     -0.434288    20A     -0.415855    21A     -0.359924

    Virtual:

      22A      0.022284    23A      0.034497    24A      0.039364
      25A      0.040738    26A      0.041038    27A      0.048383
      28A      0.058591    29A      0.058715    30A      0.067113
      31A      0.079519    32A      0.084902    33A      0.099419
      34A      0.100948    35A      0.103855    36A      0.108355
      37A      0.108706    38A      0.114201    39A      0.114951
      40A      0.122339    41A      0.123776    42A      0.125322
      43A      0.125442    44A      0.128661    45A      0.130783
      46A      0.132889    47A      0.134009    48A      0.151966
      49A      0.152882    50A      0.158199    51A      0.159189
      52A      0.161084    53A      0.161326    54A      0.163914
      55A      0.175179    56A      0.176605    57A      0.186918
      58A      0.197652    59A      0.203747    60A      0.203908
      61A      0.206506    62A      0.212538    63A      0.222231
      64A      0.233463    65A      0.239291    66A      0.250517
      67A      0.255064    68A      0.267756    69A      0.270627
      70A      0.278057    71A      0.287812    72A      0.293207
      73A      0.295748    74A      0.302172    75A      0.314832
      76A      0.320457    77A      0.320491    78A      0.328010
      79A      0.331146    80A      0.343971    81A      0.355428
      82A      0.357908    83A      0.364661    84A      0.380350
      85A      0.382582    86A      0.385480    87A      0.398891
      88A      0.401122    89A      0.409895    90A      0.419123
      91A      0.424793    92A      0.425453    93A      0.433925
      94A      0.437212    95A      0.441780    96A      0.452092
      97A      0.460502    98A      0.460950    99A      0.471483
     100A      0.475932   101A      0.478669   102A      0.492140
     103A      0.504862   104A      0.507672   105A      0.514914
     106A      0.523619   107A      0.524547   108A      0.528668
     109A      0.535580   110A      0.554577   111A      0.557693
     112A      0.561360   113A      0.564342   114A      0.570535
     115A      0.581756   116A      0.587535   117A      0.591506
     118A      0.593799   119A      0.595863   120A      0.608929
     121A      0.614986   122A      0.620004   123A      0.636210
     124A      0.643517   125A      0.644321   126A      0.649203
     127A      0.651336   128A      0.679263   129A      0.685136
     130A      0.685166   131A      0.687758   132A      0.689932
     133A      0.690342   134A      0.694828   135A      0.703829
     136A      0.719739   137A      0.728235   138A      0.746558
     139A      0.746632   140A      0.754817   141A      0.766965
     142A      0.775526   143A      0.781406   144A      0.793480
     145A      0.799815   146A      0.802710   147A      0.810940
     148A      0.811826   149A      0.819016   150A      0.824600
     151A      0.831071   152A      0.847513   153A      0.847907
     154A      0.849032   155A      0.868453   156A      0.880544
     157A      0.886410   158A      0.887995   159A      0.894682
     160A      0.905949   161A      0.928962   162A      0.929272
     163A      0.939466   164A      0.947538   165A      0.949307
     166A      0.970625   167A      0.976780   168A      0.986484
     169A      0.996652   170A      0.998908   171A      1.013015
     172A      1.032268   173A      1.033370   174A      1.046775
     175A      1.051194   176A      1.076111   177A      1.089381
     178A      1.090123   179A      1.100445   180A      1.122199
     181A      1.124044   182A      1.130510   183A      1.134362
     184A      1.140111   185A      1.158740   186A      1.168434
     187A      1.170522   188A      1.173565   189A      1.192053
     190A      1.193086   191A      1.200316   192A      1.222164
     193A      1.235416   194A      1.238804   195A      1.250873
     196A      1.307401   197A      1.309673   198A      1.318104
     199A      1.326260   200A      1.329456   201A      1.331148
     202A      1.346652   203A      1.389062   204A      1.414282
     205A      1.448236   206A      1.451526   207A      1.455305
     208A      1.478980   209A      1.486137   210A      1.487051
     211A      1.488075   212A      1.499211   213A      1.502846
     214A      1.518252   215A      1.572686   216A      1.574192
     217A      1.587836   218A      1.635982   219A      1.640505
     220A      1.648219   221A      1.659088   222A      1.676552
     223A      1.697912   224A      1.716991   225A      1.746597
     226A      1.755104   227A      1.783762   228A      1.815727
     229A      1.893323   230A      1.916137   231A      1.964829
     232A      1.987674   233A      2.031202   234A      2.070075
     235A      2.091548   236A      2.101028   237A      2.102611
     238A      2.119291   239A      2.142953   240A      2.156524
     241A      2.159038   242A      2.163355   243A      2.190488
     244A      2.193301   245A      2.194708   246A      2.200380
     247A      2.202410   248A      2.227626   249A      2.234621
     250A      2.241051   251A      2.249508   252A      2.309864
     253A      2.312761   254A      2.319393   255A      2.355229
     256A      2.384653   257A      2.419058   258A      2.430957
     259A      2.435262   260A      2.438015   261A      2.438977
     262A      2.472524   263A      2.486573   264A      2.498170
     265A      2.519379   266A      2.522395   267A      2.524916
     268A      2.545843   269A      2.568176   270A      2.584766
     271A      2.592221   272A      2.606266   273A      2.625822
     274A      2.665224   275A      2.675409   276A      2.686395
     277A      2.713985   278A      2.716746   279A      2.718591
     280A      2.726499   281A      2.767782   282A      2.844014
     283A      2.865761   284A      2.903886   285A      2.939196
     286A      2.947076   287A      2.955599   288A      2.973189
     289A      3.001855   290A      3.017872   291A      3.032186
     292A      3.058179   293A      3.065079   294A      3.094137
     295A      3.113719   296A      3.220316   297A      3.245578
     298A      3.255980   299A      3.284880   300A      3.289529
     301A      3.321810   302A      3.337589   303A      3.340337
     304A      3.348507   305A      3.351231   306A      3.366140
     307A      3.412479   308A      3.413367   309A      3.470636
     310A      3.501834   311A      3.514920   312A      3.521242
     313A      3.590655   314A      3.604317   315A      3.605523
     316A      3.627769   317A      3.700364   318A      3.818804
     319A      3.830567   320A      3.940849   321A      3.968976
     322A      3.977236   323A      4.011283   324A      4.194638
     325A      4.242130   326A      4.253485   327A      4.441869
     328A      4.546709   329A      4.579156   330A      4.867519
     331A      4.976024   332A      5.057732   333A      5.261592
     334A      5.316419   335A      5.630078   336A      5.691204
     337A      5.827028   338A      5.952514   339A      6.283708
     340A      6.306770   341A      6.453647   342A      6.631081
     343A     18.125597   344A     18.207859   345A     19.017455
     346A     19.342880   347A     25.286941   348A     25.374661

    Final Occupation by Irrep:
              A
    DOCC [    21 ]

  @DF-RHF Final Energy:  -262.63994485290294

   => Energetics <=

    Nuclear Repulsion Energy =            212.5517311104852638
    One-Electron Energy =                -775.4594096353855548
    Two-Electron Energy =                 300.2677336719974051
    Total Energy =                       -262.6399448529029428

Computation Completed


Properties will be evaluated at   0.000000,   0.000000,   0.000000 [a0]

Properties computed using the SCF density matrix

  Nuclear Dipole Moment: [e a0]
     X:    55.0814      Y: -1351.7910      Z:  -574.6777

  Electronic Dipole Moment: [e a0]
     X:   -55.0814      Y:  1351.7910      Z:   574.6777

  Dipole Moment: [e a0]
     X:     0.0000      Y:    -0.0000      Z:     0.0000     Total:     0.0000

  Dipole Moment: [D]
     X:     0.0000      Y:    -0.0000      Z:     0.0000     Total:     0.0000


*** tstop() called on atl1-1-01-013-8-r.pace.gatech.edu at Mon Nov 29 16:19:24 2021
Module time:
	user time   =      13.75 seconds =       0.23 minutes
	system time =       0.45 seconds =       0.01 minutes
	total time  =          8 seconds =       0.13 minutes
Total time:
	user time   =      50.32 seconds =       0.84 minutes
	system time =       1.84 seconds =       0.03 minutes
	total time  =         28 seconds =       0.47 minutes
  Constructing Basis Sets for SAPT...

   => Loading Basis Set <=

    Name: (AUG-CC-PVDZ AUX)
    Role: RIFIT
    Keyword: DF_BASIS_SAPT
    atoms 1-2, 11-12  entry N          line   158 file /storage/home/hhive1/csargent30/data/miniconda3/envs/psi4/share/psi4/basis/aug-cc-pvdz-ri.gbs
    atoms 3-6, 13-16  entry H          line    30 file /storage/home/hhive1/csargent30/data/miniconda3/envs/psi4/share/psi4/basis/aug-cc-pvdz-ri.gbs
    atoms 7-10, 17-20 entry C          line   112 file /storage/home/hhive1/csargent30/data/miniconda3/envs/psi4/share/psi4/basis/aug-cc-pvdz-ri.gbs


  //>>>>>>>>>>>>>>>>>>>>>>>>>>>>>>>>>>>//
  //               SAPT0               //
  //<<<<<<<<<<<<<<<<<<<<<<<<<<<<<<<<<<<//


*** tstart() called on atl1-1-01-013-8-r.pace.gatech.edu
*** at Mon Nov 29 16:19:24 2021

        SAPT0
    Ed Hohenstein
     6 June 2009

      Orbital Information
  --------------------------
    NSO        =       348
    NMO        =       348
    NRI        =      1048
    NOCC A     =        21
    NOCC B     =        21
    FOCC A     =         6
    FOCC B     =         6
    NVIR A     =       327
    NVIR B     =       327

    Elst10,r            =    -0.000000804146 [Eh]
    Exch10              =    -0.000000000000 [Eh]
    Exch10 (S^2)        =    -0.000000000000 [Eh]

    Iter     Energy [mEh]          dE [mEh]         Residual      Time [s]
       1      -0.00000166       0.000001657       0.012257948             1
       2      -0.00000145      -0.000000209       0.002053047             1
       3      -0.00000157       0.000000118       0.000596026             2
       4      -0.00000157       0.000000003       0.000246967             2
       5      -0.00000156      -0.000000005       0.000103713             2
       6      -0.00000156       0.000000001       0.000035727             3
       7      -0.00000157       0.000000000       0.000010495             3
       8      -0.00000157      -0.000000000       0.000002747             3
       9      -0.00000157      -0.000000000       0.000000956             4

    CHF Iterations converged


    Iter     Energy [mEh]          dE [mEh]         Residual      Time [s]
       1      -0.00000166       0.000001657       0.012257948             0
       2      -0.00000145      -0.000000209       0.002053047             0
       3      -0.00000157       0.000000118       0.000596027             1
       4      -0.00000157       0.000000003       0.000246967             1
       5      -0.00000156      -0.000000005       0.000103713             2
       6      -0.00000156       0.000000001       0.000035727             2
       7      -0.00000157       0.000000000       0.000010495             2
       8      -0.00000157      -0.000000000       0.000002747             3
       9      -0.00000157      -0.000000000       0.000000956             3

    CHF Iterations converged

    Ind20,r (A<-B)      =    -0.000000001565 [Eh]
    Ind20,r (B<-A)      =    -0.000000001565 [Eh]
    Ind20,r             =    -0.000000003130 [Eh]
    Exch-Ind20,r (A<-B) =     0.000000000000 [Eh]
    Exch-Ind20,r (B<-A) =     0.000000000000 [Eh]
    Exch-Ind20,r        =     0.000000000000 [Eh]
    Disp20              =    -0.000000720233 [Eh]
    Disp20 (SS)         =    -0.000000360117 [Eh]
    Disp20 (OS)         =    -0.000000360117 [Eh]
    Exch-Disp20         =     0.000000000000 [Eh]
    Exch-Disp20 (SS)    =     0.000000000000 [Eh]
    Exch-Disp20 (OS)    =     0.000000000000 [Eh]

    SAPT Results
  --------------------------------------------------------------------------------------------------------
    Electrostatics                 -0.00080415 [mEh]      -0.00050461 [kcal/mol]      -0.00211128 [kJ/mol]
      Elst10,r                     -0.00080415 [mEh]      -0.00050461 [kcal/mol]      -0.00211128 [kJ/mol]

    Exchange                       -0.00000000 [mEh]      -0.00000000 [kcal/mol]      -0.00000000 [kJ/mol]
      Exch10                       -0.00000000 [mEh]      -0.00000000 [kcal/mol]      -0.00000000 [kJ/mol]
      Exch10(S^2)                  -0.00000000 [mEh]      -0.00000000 [kcal/mol]      -0.00000000 [kJ/mol]

    Induction                       0.00000279 [mEh]       0.00000175 [kcal/mol]       0.00000734 [kJ/mol]
      Ind20,r                      -0.00000313 [mEh]      -0.00000196 [kcal/mol]      -0.00000822 [kJ/mol]
      Exch-Ind20,r                  0.00000000 [mEh]       0.00000000 [kcal/mol]       0.00000000 [kJ/mol]
      delta HF,r (2)                0.00000592 [mEh]       0.00000372 [kcal/mol]       0.00001555 [kJ/mol]

    Dispersion                     -0.00072023 [mEh]      -0.00045195 [kcal/mol]      -0.00189097 [kJ/mol]
      Disp20                       -0.00072023 [mEh]      -0.00045195 [kcal/mol]      -0.00189097 [kJ/mol]
      Exch-Disp20                   0.00000000 [mEh]       0.00000000 [kcal/mol]       0.00000000 [kJ/mol]
      Disp20 (SS)                  -0.00036012 [mEh]      -0.00022598 [kcal/mol]      -0.00094549 [kJ/mol]
      Disp20 (OS)                  -0.00036012 [mEh]      -0.00022598 [kcal/mol]      -0.00094549 [kJ/mol]
      Exch-Disp20 (SS)              0.00000000 [mEh]       0.00000000 [kcal/mol]       0.00000000 [kJ/mol]
      Exch-Disp20 (OS)              0.00000000 [mEh]       0.00000000 [kcal/mol]       0.00000000 [kJ/mol]

  Total HF                         -0.00080135 [mEh]      -0.00050286 [kcal/mol]      -0.00210395 [kJ/mol]
  Total SAPT0                      -0.00152159 [mEh]      -0.00095481 [kcal/mol]      -0.00399492 [kJ/mol]

  Special recipe for scaled SAPT0 (see Manual):
    Electrostatics sSAPT0          -0.00080415 [mEh]      -0.00050461 [kcal/mol]      -0.00211128 [kJ/mol]
    Exchange sSAPT0                -0.00000000 [mEh]      -0.00000000 [kcal/mol]      -0.00000000 [kJ/mol]
    Induction sSAPT0                0.00000279 [mEh]       0.00000175 [kcal/mol]       0.00000734 [kJ/mol]
    Dispersion sSAPT0              -0.00072023 [mEh]      -0.00045195 [kcal/mol]      -0.00189097 [kJ/mol]
  Total sSAPT0                     -0.00152159 [mEh]      -0.00095481 [kcal/mol]      -0.00399492 [kJ/mol]
  --------------------------------------------------------------------------------------------------------

*** tstop() called on atl1-1-01-013-8-r.pace.gatech.edu at Mon Nov 29 16:19:47 2021
Module time:
	user time   =      35.53 seconds =       0.59 minutes
	system time =       7.78 seconds =       0.13 minutes
	total time  =         23 seconds =       0.38 minutes
Total time:
	user time   =      86.09 seconds =       1.43 minutes
	system time =       9.63 seconds =       0.16 minutes
	total time  =         51 seconds =       0.85 minutes


Warning! sapt0 does not have an associated derived wavefunction.The returned wavefunction is the dimer SCF wavefunction.


    Psi4 stopped on: Monday, 29 November 2021 04:19PM
    Psi4 wall time for execution: 0:00:51.64

*** Psi4 exiting successfully. Buy a developer a beer!
