
    -----------------------------------------------------------------------
          Psi4: An Open-Source Ab Initio Electronic Structure Package
                               Psi4 1.4.1 release

                         Git: Rev {HEAD} cd00f19 


    D. G. A. Smith, L. A. Burns, A. C. Simmonett, R. M. Parrish,
    M. C. Schieber, R. Galvelis, P. Kraus, H. Kruse, R. Di Remigio,
    A. Alenaizan, A. M. James, S. Lehtola, J. P. Misiewicz, M. Scheurer,
    R. A. Shaw, J. B. Schriber, Y. Xie, Z. L. Glick, D. A. Sirianni,
    J. S. O'Brien, J. M. Waldrop, A. Kumar, E. G. Hohenstein,
    B. P. Pritchard, B. R. Brooks, H. F. Schaefer III, A. Yu. Sokolov,
    K. Patkowski, A. E. DePrince III, U. Bozkaya, R. A. King,
    F. A. Evangelista, J. M. Turney, T. D. Crawford, C. D. Sherrill,
    J. Chem. Phys. 152(18) 184108 (2020). https://doi.org/10.1063/5.0006002

                            Additional Code Authors
    E. T. Seidl, C. L. Janssen, E. F. Valeev, M. L. Leininger,
    J. F. Gonthier, R. M. Richard, H. R. McAlexander, M. Saitow, X. Wang,
    P. Verma, and M. H. Lechner

             Previous Authors, Complete List of Code Contributors,
                       and Citations for Specific Modules
    https://github.com/psi4/psi4/blob/master/codemeta.json
    https://github.com/psi4/psi4/graphs/contributors
    http://psicode.org/psi4manual/master/introduction.html#citing-psifour

    -----------------------------------------------------------------------


    Psi4 started on: Monday, 29 November 2021 04:10PM

    Process ID: 205825
    Host:       atl1-1-01-013-6-r.pace.gatech.edu
    PSIDATADIR: /storage/home/hhive1/csargent30/data/miniconda3/envs/psi4/share/psi4
    Memory:     500.0 MiB
    Threads:    2
    
  ==> Input File <==

--------------------------------------------------------------------------
# PSI4 file produced by CrystaLattE

# Generated from:               pyrazine.xyz
# Psithon input for N-mer:      2mer-0+215
# Number of atoms per monomer:  [10, 10]
# Number of replicas:           2
# COM priority:                 2.565082499813e-05
# Minimum COM separations:      17.943 
# Separation priority:          4.469562345367e-05
# Minimum monomer separations:  14.911 
# Cutoff priority:              1.586183152575e-06
# Nuclear repulsion energy:     477.12958369762066

memory 7 GB

molecule Dimer_0_215 {
  N           -1.33084758       0.98032658       0.42627037 
  N            3.95377333       0.98032658       0.42627037 
  H            3.56713674       4.35218569      -0.94230973 
  H           -0.94421098       4.35218569      -0.94230973 
  H           -0.94421098      -2.39153253       1.79485047 
  H            3.56713674      -2.39153253       1.79485047 
  C            2.62292576       2.94097974      -0.42627037 
  C            0.00000000       2.94097974      -0.42627037 
  C            0.00000000      -0.98032658       1.27881112 
  C            2.62292576      -0.98032658       1.27881112 
--
  N           -1.33084758     -32.18550076      -6.62826622 
  N            3.95377333     -32.18550076      -6.62826622 
  H            3.56713674     -28.81364165      -7.99684633 
  H           -0.94421098     -28.81364165      -7.99684633 
  H           -0.94421098     -35.55735987      -5.25968612 
  H            3.56713674     -35.55735987      -5.25968612 
  C            2.62292576     -30.22484760      -7.48080697 
  C            0.00000000     -30.22484760      -7.48080697 
  C            0.00000000     -34.14615392      -5.77572548 
  C            2.62292576     -34.14615392      -5.77572548 
units = au
no_com
no_reorient
}

set {
  e_convergence 10
  d_convergence 10
  scf_type df
  mp2_type df
  cc_type df
  freeze_core true
}

energy('sapt0/aug-cc-pvdz')

--------------------------------------------------------------------------

  Memory set to   6.519 GiB by Python driver.

Scratch directory: /tmp/

Scratch directory: /tmp/

  //>>>>>>>>>>>>>>>>>>>>>>>>>>>>>>>>>>>//
  //              Dimer HF             //
  //<<<<<<<<<<<<<<<<<<<<<<<<<<<<<<<<<<<//


*** tstart() called on atl1-1-01-013-6-r.pace.gatech.edu
*** at Mon Nov 29 16:10:42 2021

   => Loading Basis Set <=

    Name: AUG-CC-PVDZ
    Role: ORBITAL
    Keyword: BASIS
    atoms 1-2, 11-12  entry N          line   218 file /storage/home/hhive1/csargent30/data/miniconda3/envs/psi4/share/psi4/basis/aug-cc-pvdz.gbs 
    atoms 3-6, 13-16  entry H          line    40 file /storage/home/hhive1/csargent30/data/miniconda3/envs/psi4/share/psi4/basis/aug-cc-pvdz.gbs 
    atoms 7-10, 17-20 entry C          line   182 file /storage/home/hhive1/csargent30/data/miniconda3/envs/psi4/share/psi4/basis/aug-cc-pvdz.gbs 


         ---------------------------------------------------------
                                   SCF
               by Justin Turney, Rob Parrish, Andy Simmonett
                          and Daniel G. A. Smith
                              RHF Reference
                        2 Threads,   6675 MiB Core
         ---------------------------------------------------------

  ==> Geometry <==

    Molecular point group: c1
    Full point group: C1

    Geometry (in Bohr), charge = 0, multiplicity = 1:

       Center              X                  Y                   Z               Mass       
    ------------   -----------------  -----------------  -----------------  -----------------
         N           -1.330847580000     0.980326580000     0.426270370000    14.003074004430
         N            3.953773330000     0.980326580000     0.426270370000    14.003074004430
         H            3.567136740000     4.352185690000    -0.942309730000     1.007825032230
         H           -0.944210980000     4.352185690000    -0.942309730000     1.007825032230
         H           -0.944210980000    -2.391532530000     1.794850470000     1.007825032230
         H            3.567136740000    -2.391532530000     1.794850470000     1.007825032230
         C            2.622925760000     2.940979740000    -0.426270370000    12.000000000000
         C            0.000000000000     2.940979740000    -0.426270370000    12.000000000000
         C            0.000000000000    -0.980326580000     1.278811120000    12.000000000000
         C            2.622925760000    -0.980326580000     1.278811120000    12.000000000000
         N           -1.330847580000   -32.185500760000    -6.628266220000    14.003074004430
         N            3.953773330000   -32.185500760000    -6.628266220000    14.003074004430
         H            3.567136740000   -28.813641650000    -7.996846330000     1.007825032230
         H           -0.944210980000   -28.813641650000    -7.996846330000     1.007825032230
         H           -0.944210980000   -35.557359870000    -5.259686120000     1.007825032230
         H            3.567136740000   -35.557359870000    -5.259686120000     1.007825032230
         C            2.622925760000   -30.224847600000    -7.480806970000    12.000000000000
         C            0.000000000000   -30.224847600000    -7.480806970000    12.000000000000
         C            0.000000000000   -34.146153920000    -5.775725480000    12.000000000000
         C            2.622925760000   -34.146153920000    -5.775725480000    12.000000000000

  Running in c1 symmetry.

  Rotational constants: A =      0.06511  B =      0.00069  C =      0.00069 [cm^-1]
  Rotational constants: A =   1952.03835  B =     20.69804  C =     20.56542 [MHz]
  Nuclear repulsion =  477.129583672144634

  Charge       = 0
  Multiplicity = 1
  Electrons    = 84
  Nalpha       = 42
  Nbeta        = 42

  ==> Algorithm <==

  SCF Algorithm Type is DF.
  DIIS enabled.
  MOM disabled.
  Fractional occupation disabled.
  Guess Type is SAD.
  Energy threshold   = 1.00e-10
  Density threshold  = 1.00e-10
  Integral threshold = 1.00e-12

  ==> Primary Basis <==

  Basis Set: AUG-CC-PVDZ
    Blend: AUG-CC-PVDZ
    Number of shells: 148
    Number of basis functions: 348
    Number of Cartesian functions: 372
    Spherical Harmonics?: true
    Max angular momentum: 2

   => Loading Basis Set <=

    Name: (AUG-CC-PVDZ AUX)
    Role: JKFIT
    Keyword: DF_BASIS_SCF
    atoms 1-2, 11-12  entry N          line   212 file /storage/home/hhive1/csargent30/data/miniconda3/envs/psi4/share/psi4/basis/aug-cc-pvdz-jkfit.gbs 
    atoms 3-6, 13-16  entry H          line    70 file /storage/home/hhive1/csargent30/data/miniconda3/envs/psi4/share/psi4/basis/aug-cc-pvdz-jkfit.gbs 
    atoms 7-10, 17-20 entry C          line   154 file /storage/home/hhive1/csargent30/data/miniconda3/envs/psi4/share/psi4/basis/aug-cc-pvdz-jkfit.gbs 

  ==> Integral Setup <==

  ==> DiskDFJK: Density-Fitted J/K Matrices <==

    J tasked:                  Yes
    K tasked:                  Yes
    wK tasked:                  No
    OpenMP threads:              2
    Integrals threads:           2
    Memory [MiB]:             5006
    Algorithm:                Core
    Integral Cache:           SAVE
    Schwarz Cutoff:          1E-12
    Fitting Condition:       1E-10

   => Auxiliary Basis Set <=

  Basis Set: (AUG-CC-PVDZ AUX)
    Blend: AUG-CC-PVDZ-JKFIT
    Number of shells: 432
    Number of basis functions: 1288
    Number of Cartesian functions: 1492
    Spherical Harmonics?: true
    Max angular momentum: 3

  Minimum eigenvalue in the overlap matrix is 9.4861598195E-06.
  Reciprocal condition number of the overlap matrix is 7.3988932965E-07.
    Using symmetric orthogonalization.

  ==> Pre-Iterations <==

  SCF Guess: Superposition of Atomic Densities via on-the-fly atomic UHF (no occupation information).

   -------------------------
    Irrep   Nso     Nmo    
   -------------------------
     A        348     348 
   -------------------------
    Total     348     348
   -------------------------

  ==> Iterations <==

                           Total Energy        Delta E     RMS |[F,P]|

   @DF-RHF iter SAD:  -524.65046251585591   -5.24650e+02   0.00000e+00 
   @DF-RHF iter   1:  -525.07881491882063   -4.28352e-01   1.58371e-03 DIIS
   @DF-RHF iter   2:  -525.25757558655425   -1.78761e-01   5.80762e-04 DIIS
   @DF-RHF iter   3:  -525.27724429889781   -1.96687e-02   1.81371e-04 DIIS
   @DF-RHF iter   4:  -525.27969382265621   -2.44952e-03   5.34022e-05 DIIS
   @DF-RHF iter   5:  -525.27987303516750   -1.79213e-04   1.06853e-05 DIIS
   @DF-RHF iter   6:  -525.27988613640628   -1.31012e-05   3.46868e-06 DIIS
   @DF-RHF iter   7:  -525.27988804132383   -1.90492e-06   9.05315e-07 DIIS
   @DF-RHF iter   8:  -525.27988818910910   -1.47785e-07   1.40300e-07 DIIS
   @DF-RHF iter   9:  -525.27988819307961   -3.97051e-09   2.69506e-08 DIIS
   @DF-RHF iter  10:  -525.27988819322070   -1.41085e-10   6.58945e-09 DIIS
   @DF-RHF iter  11:  -525.27988819322695   -6.25278e-12   3.16754e-09 DIIS
   @DF-RHF iter  12:  -525.27988819322718   -2.27374e-13   4.46328e-10 DIIS
   @DF-RHF iter  13:  -525.27988819322650    6.82121e-13   9.63705e-11 DIIS
  Energy and wave function converged.


  ==> Post-Iterations <==

    Orbital Energies [Eh]
    ---------------------

    Doubly Occupied:                                                      

       1A    -15.598217     2A    -15.598217     3A    -15.598199  
       4A    -15.598199     5A    -11.274385     6A    -11.274385  
       7A    -11.274340     8A    -11.274340     9A    -11.273122  
      10A    -11.273122    11A    -11.273114    12A    -11.273114  
      13A     -1.313493    14A     -1.313493    15A     -1.224321  
      16A     -1.224321    17A     -1.076949    18A     -1.076949  
      19A     -0.922808    20A     -0.922808    21A     -0.919429  
      22A     -0.919429    23A     -0.760783    24A     -0.760783  
      25A     -0.738548    26A     -0.738548    27A     -0.706360  
      28A     -0.706360    29A     -0.647833    30A     -0.647833  
      31A     -0.580857    32A     -0.580857    33A     -0.574516  
      34A     -0.574516    35A     -0.497257    36A     -0.497257  
      37A     -0.434434    38A     -0.434434    39A     -0.416000  
      40A     -0.416000    41A     -0.360071    42A     -0.360071  

    Virtual:                                                              

      43A      0.034333    44A      0.034367    45A      0.040555  
      46A      0.040629    47A      0.048227    48A      0.048279  
      49A      0.058426    50A      0.058499    51A      0.066961  
      52A      0.066962    53A      0.099272    54A      0.099273  
      55A      0.100802    56A      0.100805    57A      0.114046  
      58A      0.114047    59A      0.114800    60A      0.114801  
      61A      0.123602    62A      0.123683    63A      0.125171  
      64A      0.125176    65A      0.128524    66A      0.128527  
      67A      0.132734    68A      0.132734    69A      0.157943  
      70A      0.158161    71A      0.160892    72A      0.160984  
      73A      0.161137    74A      0.161252    75A      0.163725  
      76A      0.163836    77A      0.175023    78A      0.175069  
      79A      0.186768    80A      0.186768    81A      0.203752  
      82A      0.203757    83A      0.212387    84A      0.212402  
      85A      0.250368    86A      0.250368    87A      0.267614  
      88A      0.267618    89A      0.277890    90A      0.277931  
      91A      0.287666    92A      0.287666    93A      0.293060  
      94A      0.293066    95A      0.295538    96A      0.295698  
      97A      0.314693    98A      0.314694    99A      0.320311  
     100A      0.320311   101A      0.355243   102A      0.355337  
     103A      0.357759   104A      0.357760   105A      0.364515  
     106A      0.364517   107A      0.382412   108A      0.382469  
     109A      0.398717   110A      0.398769   111A      0.409724  
     112A      0.409783   113A      0.425293   114A      0.425334  
     115A      0.433776   116A      0.433776   117A      0.436985  
     118A      0.437150   119A      0.451946   120A      0.451957  
     121A      0.471326   122A      0.471347   123A      0.491993  
     124A      0.491994   125A      0.504715   126A      0.504715  
     127A      0.514762   128A      0.514763   129A      0.524398  
     130A      0.524407   131A      0.528501   132A      0.528538  
     133A      0.554429   134A      0.554434   135A      0.570384  
     136A      0.570396   137A      0.587388   138A      0.587389  
     139A      0.591356   140A      0.591362   141A      0.593654  
     142A      0.593655   143A      0.608786   144A      0.608788  
     145A      0.643375   146A      0.643375   147A      0.644164  
     148A      0.644189   149A      0.684989   150A      0.684993  
     151A      0.687611   152A      0.687611   153A      0.689780  
     154A      0.689791   155A      0.690156   156A      0.690240  
     157A      0.694681   158A      0.694687   159A      0.703654  
     160A      0.703722   161A      0.746407   162A      0.746419  
     163A      0.754670   164A      0.754670   165A      0.766821  
     166A      0.766821   167A      0.781260   168A      0.781260  
     169A      0.799665   170A      0.799674   171A      0.802559  
     172A      0.802565   173A      0.818867   174A      0.818869  
     175A      0.830923   176A      0.830924   177A      0.847364  
     178A      0.847376   179A      0.880398   180A      0.880398  
     181A      0.886265   182A      0.886265   183A      0.894534  
     184A      0.894534   185A      0.929125   186A      0.929129  
     187A      0.939310   188A      0.939328   189A      0.949149  
     190A      0.949175   191A      0.996507   192A      0.996507  
     193A      0.998765   194A      0.998766   195A      1.012871  
     196A      1.012871   197A      1.033210   198A      1.033239  
     199A      1.051047   200A      1.051047   201A      1.089236  
     202A      1.089237   203A      1.100301   204A      1.100301  
     205A      1.122030   206A      1.122075   207A      1.123895  
     208A      1.123896   209A      1.134210   210A      1.134222  
     211A      1.158586   212A      1.158607   213A      1.173417  
     214A      1.173419   215A      1.235265   216A      1.235277  
     217A      1.238659   218A      1.238661   219A      1.309520  
     220A      1.309535   221A      1.330999   222A      1.331004  
     223A      1.414132   224A      1.414139   225A      1.451379  
     226A      1.451384   227A      1.485990   228A      1.485996  
     229A      1.487929   230A      1.487931   231A      1.499049  
     232A      1.499080   233A      1.502690   234A      1.502706  
     235A      1.518105   236A      1.518107   237A      1.572538  
     238A      1.572540   239A      1.574033   240A      1.574058  
     241A      1.587673   242A      1.587705   243A      1.635831  
     244A      1.635840   245A      1.640356   246A      1.640360  
     247A      1.648062   248A      1.648087   249A      1.676405  
     250A      1.676405   251A      1.716844   252A      1.716844  
     253A      1.746450   254A      1.746451   255A      1.754956  
     256A      1.754957   257A      1.783609   258A      1.783624  
     259A      1.815580   260A      1.815580   261A      1.893176  
     262A      1.893177   263A      1.915989   264A      1.915994  
     265A      1.964682   266A      1.964683   267A      1.987528  
     268A      1.987529   269A      2.031055   270A      2.031058  
     271A      2.091399   272A      2.091404   273A      2.100873  
     274A      2.100890   275A      2.142808   276A      2.142808  
     277A      2.163209   278A      2.163210   279A      2.190342  
     280A      2.190342   281A      2.193141   282A      2.193171  
     283A      2.200232   284A      2.200236   285A      2.202264  
     286A      2.202264   287A      2.227478   288A      2.227481  
     289A      2.312614   290A      2.312616   291A      2.355078  
     292A      2.355087   293A      2.430811   294A      2.430811  
     295A      2.438831   296A      2.438831   297A      2.519233  
     298A      2.519233   299A      2.522249   300A      2.522249  
     301A      2.584622   302A      2.584622   303A      2.606120  
     304A      2.606121   305A      2.665078   306A      2.665078  
     307A      2.675264   308A      2.675264   309A      2.686244  
     310A      2.686253   311A      2.713824   312A      2.713853  
     313A      2.718444   314A      2.718446   315A      2.843868  
     316A      2.843868   317A      2.865615   318A      2.865615  
     319A      2.939048   320A      2.939053   321A      3.001707  
     322A      3.001712   323A      3.017723   324A      3.017728  
     325A      3.032038   326A      3.032044   327A      3.093986  
     328A      3.093996   329A      3.220120   330A      3.220221  
     331A      3.255833   332A      3.255834   333A      3.284727  
     334A      3.284742   335A      3.365993   336A      3.365995  
     337A      3.413216   338A      3.413226   339A      3.514774  
     340A      3.514776   341A      3.590508   342A      3.590510  
     343A      3.627622   344A      3.627624   345A      3.977083  
     346A      3.977098   347A      4.253339   348A      4.253340  

    Final Occupation by Irrep:
              A 
    DOCC [    42 ]

  @DF-RHF Final Energy:  -525.27988819322650

   => Energetics <=

    Nuclear Repulsion Energy =            477.1295836721446335
    One-Electron Energy =               -1654.9587980324213277
    Two-Electron Energy =                 652.5493261670501397
    Total Energy =                       -525.2798881932264976

Computation Completed


Properties will be evaluated at   0.000000,   0.000000,   0.000000 [a0]

Properties computed using the SCF density matrix

  Nuclear Dipole Moment: [e a0]
     X:   110.1629      Y: -1310.6173      Z:  -260.4838

  Electronic Dipole Moment: [e a0]
     X:  -110.1629      Y:  1310.6173      Z:   260.4838

  Dipole Moment: [e a0]
     X:     0.0000      Y:    -0.0000      Z:    -0.0000     Total:     0.0000

  Dipole Moment: [D]
     X:     0.0000      Y:    -0.0000      Z:    -0.0000     Total:     0.0000


*** tstop() called on atl1-1-01-013-6-r.pace.gatech.edu at Mon Nov 29 16:10:55 2021
Module time:
	user time   =      22.76 seconds =       0.38 minutes
	system time =       0.88 seconds =       0.01 minutes
	total time  =         13 seconds =       0.22 minutes
Total time:
	user time   =      22.76 seconds =       0.38 minutes
	system time =       0.88 seconds =       0.01 minutes
	total time  =         13 seconds =       0.22 minutes

  //>>>>>>>>>>>>>>>>>>>>>>>>>>>>>>>>>>>//
  //            Monomer A HF           //
  //<<<<<<<<<<<<<<<<<<<<<<<<<<<<<<<<<<<//


*** tstart() called on atl1-1-01-013-6-r.pace.gatech.edu
*** at Mon Nov 29 16:10:55 2021

   => Loading Basis Set <=

    Name: AUG-CC-PVDZ
    Role: ORBITAL
    Keyword: BASIS
    atoms 1-2, 11-12  entry N          line   218 file /storage/home/hhive1/csargent30/data/miniconda3/envs/psi4/share/psi4/basis/aug-cc-pvdz.gbs 
    atoms 3-6, 13-16  entry H          line    40 file /storage/home/hhive1/csargent30/data/miniconda3/envs/psi4/share/psi4/basis/aug-cc-pvdz.gbs 
    atoms 7-10, 17-20 entry C          line   182 file /storage/home/hhive1/csargent30/data/miniconda3/envs/psi4/share/psi4/basis/aug-cc-pvdz.gbs 


         ---------------------------------------------------------
                                   SCF
               by Justin Turney, Rob Parrish, Andy Simmonett
                          and Daniel G. A. Smith
                              RHF Reference
                        2 Threads,   6675 MiB Core
         ---------------------------------------------------------

  ==> Geometry <==

    Molecular point group: c1
    Full point group: C1

    Geometry (in Bohr), charge = 0, multiplicity = 1:

       Center              X                  Y                   Z               Mass       
    ------------   -----------------  -----------------  -----------------  -----------------
         N           -1.330847580000     0.980326580000     0.426270370000    14.003074004430
         N            3.953773330000     0.980326580000     0.426270370000    14.003074004430
         H            3.567136740000     4.352185690000    -0.942309730000     1.007825032230
         H           -0.944210980000     4.352185690000    -0.942309730000     1.007825032230
         H           -0.944210980000    -2.391532530000     1.794850470000     1.007825032230
         H            3.567136740000    -2.391532530000     1.794850470000     1.007825032230
         C            2.622925760000     2.940979740000    -0.426270370000    12.000000000000
         C            0.000000000000     2.940979740000    -0.426270370000    12.000000000000
         C            0.000000000000    -0.980326580000     1.278811120000    12.000000000000
         C            2.622925760000    -0.980326580000     1.278811120000    12.000000000000
      Gh(N)          -1.330847580000   -32.185500760000    -6.628266220000    14.003074004430
      Gh(N)           3.953773330000   -32.185500760000    -6.628266220000    14.003074004430
      Gh(H)           3.567136740000   -28.813641650000    -7.996846330000     1.007825032230
      Gh(H)          -0.944210980000   -28.813641650000    -7.996846330000     1.007825032230
      Gh(H)          -0.944210980000   -35.557359870000    -5.259686120000     1.007825032230
      Gh(H)           3.567136740000   -35.557359870000    -5.259686120000     1.007825032230
      Gh(C)           2.622925760000   -30.224847600000    -7.480806970000    12.000000000000
      Gh(C)           0.000000000000   -30.224847600000    -7.480806970000    12.000000000000
      Gh(C)           0.000000000000   -34.146153920000    -5.775725480000    12.000000000000
      Gh(C)           2.622925760000   -34.146153920000    -5.775725480000    12.000000000000

  Running in c1 symmetry.

  Rotational constants: A =      0.06511  B =      0.00069  C =      0.00069 [cm^-1]
  Rotational constants: A =   1952.03835  B =     20.69804  C =     20.56542 [MHz]
  Nuclear repulsion =  212.551731110485349

  Charge       = 0
  Multiplicity = 1
  Electrons    = 42
  Nalpha       = 21
  Nbeta        = 21

  ==> Algorithm <==

  SCF Algorithm Type is DF.
  DIIS enabled.
  MOM disabled.
  Fractional occupation disabled.
  Guess Type is SAD.
  Energy threshold   = 1.00e-10
  Density threshold  = 1.00e-10
  Integral threshold = 1.00e-12

  ==> Primary Basis <==

  Basis Set: AUG-CC-PVDZ
    Blend: AUG-CC-PVDZ
    Number of shells: 148
    Number of basis functions: 348
    Number of Cartesian functions: 372
    Spherical Harmonics?: true
    Max angular momentum: 2

   => Loading Basis Set <=

    Name: (AUG-CC-PVDZ AUX)
    Role: JKFIT
    Keyword: DF_BASIS_SCF
    atoms 1-2, 11-12  entry N          line   212 file /storage/home/hhive1/csargent30/data/miniconda3/envs/psi4/share/psi4/basis/aug-cc-pvdz-jkfit.gbs 
    atoms 3-6, 13-16  entry H          line    70 file /storage/home/hhive1/csargent30/data/miniconda3/envs/psi4/share/psi4/basis/aug-cc-pvdz-jkfit.gbs 
    atoms 7-10, 17-20 entry C          line   154 file /storage/home/hhive1/csargent30/data/miniconda3/envs/psi4/share/psi4/basis/aug-cc-pvdz-jkfit.gbs 

  ==> Integral Setup <==

  ==> DiskDFJK: Density-Fitted J/K Matrices <==

    J tasked:                  Yes
    K tasked:                  Yes
    wK tasked:                  No
    OpenMP threads:              2
    Integrals threads:           2
    Memory [MiB]:             5006
    Algorithm:                Core
    Integral Cache:           LOAD
    Schwarz Cutoff:          1E-12
    Fitting Condition:       1E-10

   => Auxiliary Basis Set <=

  Basis Set: (AUG-CC-PVDZ AUX)
    Blend: AUG-CC-PVDZ-JKFIT
    Number of shells: 432
    Number of basis functions: 1288
    Number of Cartesian functions: 1492
    Spherical Harmonics?: true
    Max angular momentum: 3

  Minimum eigenvalue in the overlap matrix is 9.4861598195E-06.
  Reciprocal condition number of the overlap matrix is 7.3988932965E-07.
    Using symmetric orthogonalization.

  ==> Pre-Iterations <==

  SCF Guess: Superposition of Atomic Densities via on-the-fly atomic UHF (no occupation information).

   -------------------------
    Irrep   Nso     Nmo    
   -------------------------
     A        348     348 
   -------------------------
    Total     348     348
   -------------------------

  ==> Iterations <==

                           Total Energy        Delta E     RMS |[F,P]|

   @DF-RHF iter SAD:  -262.32523125858160   -2.62325e+02   0.00000e+00 
   @DF-RHF iter   1:  -262.53940797984058   -2.14177e-01   1.11985e-03 DIIS
   @DF-RHF iter   2:  -262.62878837274786   -8.93804e-02   4.10664e-04 DIIS
   @DF-RHF iter   3:  -262.63862291727111   -9.83454e-03   1.28248e-04 DIIS
   @DF-RHF iter   4:  -262.63984767053091   -1.22475e-03   3.77599e-05 DIIS
   @DF-RHF iter   5:  -262.63993727099285   -8.96005e-05   7.55558e-06 DIIS
   @DF-RHF iter   6:  -262.63994382125253   -6.55026e-06   2.45264e-06 DIIS
   @DF-RHF iter   7:  -262.63994477362587   -9.52373e-07   6.40130e-07 DIIS
   @DF-RHF iter   8:  -262.63994484751328   -7.38874e-08   9.91693e-08 DIIS
   @DF-RHF iter   9:  -262.63994484949961   -1.98634e-09   1.88228e-08 DIIS
   @DF-RHF iter  10:  -262.63994484957107   -7.14522e-11   3.19151e-09 DIIS
   @DF-RHF iter  11:  -262.63994484957334   -2.27374e-12   5.22317e-10 DIIS
   @DF-RHF iter  12:  -262.63994484957368   -3.41061e-13   9.54360e-11 DIIS
  Energy and wave function converged.


  ==> Post-Iterations <==

    Orbital Energies [Eh]
    ---------------------

    Doubly Occupied:                                                      

       1A    -15.598072     2A    -15.598053     3A    -11.274239  
       4A    -11.274194     5A    -11.272975     6A    -11.272969  
       7A     -1.313347     8A     -1.224176     9A     -1.076803  
      10A     -0.922662    11A     -0.919282    12A     -0.760637  
      13A     -0.738402    14A     -0.706214    15A     -0.647687  
      16A     -0.580711    17A     -0.574369    18A     -0.497113  
      19A     -0.434288    20A     -0.415855    21A     -0.359924  

    Virtual:                                                              

      22A      0.022212    23A      0.034497    24A      0.039286  
      25A      0.040739    26A      0.040973    27A      0.048383  
      28A      0.058573    29A      0.058664    30A      0.067113  
      31A      0.079448    32A      0.084827    33A      0.099419  
      34A      0.100948    35A      0.103785    36A      0.108287  
      37A      0.108639    38A      0.114201    39A      0.114951  
      40A      0.122265    41A      0.123776    42A      0.125319  
      43A      0.125369    44A      0.128661    45A      0.130714  
      46A      0.132889    47A      0.133938    48A      0.151896  
      49A      0.152815    50A      0.158199    51A      0.159119  
      52A      0.161084    53A      0.161327    54A      0.163914  
      55A      0.175179    56A      0.176536    57A      0.186918  
      58A      0.197586    59A      0.203672    60A      0.203909  
      61A      0.206439    62A      0.212538    63A      0.222159  
      64A      0.233396    65A      0.239224    66A      0.250517  
      67A      0.254996    68A      0.267756    69A      0.270560  
      70A      0.278057    71A      0.287812    72A      0.293207  
      73A      0.295749    74A      0.302098    75A      0.314832  
      76A      0.320422    77A      0.320457    78A      0.327940  
      79A      0.331076    80A      0.343905    81A      0.355428  
      82A      0.357908    83A      0.364661    84A      0.380281  
      85A      0.382583    86A      0.385409    87A      0.398891  
      88A      0.401053    89A      0.409895    90A      0.419053  
      91A      0.424721    92A      0.425453    93A      0.433925  
      94A      0.437212    95A      0.441710    96A      0.452092  
      97A      0.460432    98A      0.460880    99A      0.471483  
     100A      0.475861   101A      0.478600   102A      0.492140  
     103A      0.504862   104A      0.507600   105A      0.514914  
     106A      0.523549   107A      0.524547   108A      0.528668  
     109A      0.535509   110A      0.554577   111A      0.557624  
     112A      0.561288   113A      0.564273   114A      0.570535  
     115A      0.581687   116A      0.587535   117A      0.591506  
     118A      0.593799   119A      0.595793   120A      0.608929  
     121A      0.614917   122A      0.619934   123A      0.636140  
     124A      0.643517   125A      0.644321   126A      0.649132  
     127A      0.651265   128A      0.679192   129A      0.685094  
     130A      0.685138   131A      0.687758   132A      0.689932  
     133A      0.690342   134A      0.694828   135A      0.703829  
     136A      0.719666   137A      0.728164   138A      0.746548  
     139A      0.746572   140A      0.754817   141A      0.766965  
     142A      0.775456   143A      0.781406   144A      0.793410  
     145A      0.799815   146A      0.802710   147A      0.810870  
     148A      0.811756   149A      0.819016   150A      0.824531  
     151A      0.831071   152A      0.847513   153A      0.847837  
     154A      0.848963   155A      0.868382   156A      0.880544  
     157A      0.886410   158A      0.887925   159A      0.894682  
     160A      0.905879   161A      0.928892   162A      0.929272  
     163A      0.939466   164A      0.947468   165A      0.949307  
     166A      0.970554   167A      0.976711   168A      0.986415  
     169A      0.996652   170A      0.998908   171A      1.013015  
     172A      1.032197   173A      1.033370   174A      1.046705  
     175A      1.051194   176A      1.076041   177A      1.089381  
     178A      1.090055   179A      1.100445   180A      1.122199  
     181A      1.124044   182A      1.130440   183A      1.134362  
     184A      1.140042   185A      1.158740   186A      1.168364  
     187A      1.170453   188A      1.173565   189A      1.191984  
     190A      1.193017   191A      1.200247   192A      1.222094  
     193A      1.235416   194A      1.238804   195A      1.250804  
     196A      1.307332   197A      1.309674   198A      1.318036  
     199A      1.326191   200A      1.329387   201A      1.331148  
     202A      1.346584   203A      1.388991   204A      1.414282  
     205A      1.448167   206A      1.451526   207A      1.455237  
     208A      1.478910   209A      1.486137   210A      1.486982  
     211A      1.488075   212A      1.499211   213A      1.502846  
     214A      1.518252   215A      1.572686   216A      1.574192  
     217A      1.587836   218A      1.635982   219A      1.640505  
     220A      1.648219   221A      1.659018   222A      1.676552  
     223A      1.697844   224A      1.716991   225A      1.746597  
     226A      1.755104   227A      1.783762   228A      1.815727  
     229A      1.893323   230A      1.916137   231A      1.964829  
     232A      1.987674   233A      2.031202   234A      2.070004  
     235A      2.091548   236A      2.101028   237A      2.102541  
     238A      2.119220   239A      2.142953   240A      2.156454  
     241A      2.158967   242A      2.163355   243A      2.190488  
     244A      2.193301   245A      2.194638   246A      2.200380  
     247A      2.202410   248A      2.227626   249A      2.234551  
     250A      2.240981   251A      2.249437   252A      2.309793  
     253A      2.312761   254A      2.319323   255A      2.355229  
     256A      2.384583   257A      2.418988   258A      2.430957  
     259A      2.435192   260A      2.437944   261A      2.438977  
     262A      2.472454   263A      2.486503   264A      2.498099  
     265A      2.519379   266A      2.522395   267A      2.524846  
     268A      2.545773   269A      2.568106   270A      2.584766  
     271A      2.592150   272A      2.606266   273A      2.625752  
     274A      2.665224   275A      2.675409   276A      2.686395  
     277A      2.713985   278A      2.716676   279A      2.718591  
     280A      2.726429   281A      2.767712   282A      2.844014  
     283A      2.865761   284A      2.903816   285A      2.939196  
     286A      2.947006   287A      2.955529   288A      2.973120  
     289A      3.001855   290A      3.017872   291A      3.032186  
     292A      3.058109   293A      3.065008   294A      3.094137  
     295A      3.113648   296A      3.220316   297A      3.245508  
     298A      3.255980   299A      3.284880   300A      3.289461  
     301A      3.321739   302A      3.337521   303A      3.340267  
     304A      3.348438   305A      3.351162   306A      3.366140  
     307A      3.412410   308A      3.413367   309A      3.470566  
     310A      3.501764   311A      3.514920   312A      3.521174  
     313A      3.590655   314A      3.604248   315A      3.605455  
     316A      3.627769   317A      3.700296   318A      3.818734  
     319A      3.830499   320A      3.940780   321A      3.968907  
     322A      3.977236   323A      4.011213   324A      4.194568  
     325A      4.242061   326A      4.253485   327A      4.441800  
     328A      4.546640   329A      4.579087   330A      4.867450  
     331A      4.975954   332A      5.057663   333A      5.261522  
     334A      5.316350   335A      5.630009   336A      5.691135  
     337A      5.826959   338A      5.952443   339A      6.283639  
     340A      6.306700   341A      6.453577   342A      6.631011  
     343A     18.125527   344A     18.207789   345A     19.017385  
     346A     19.342810   347A     25.286873   348A     25.374593  

    Final Occupation by Irrep:
              A 
    DOCC [    21 ]

  @DF-RHF Final Energy:  -262.63994484957368

   => Energetics <=

    Nuclear Repulsion Energy =            212.5517311104853491
    One-Electron Energy =                -775.4594096264728478
    Two-Electron Energy =                 300.2677336664138465
    Total Energy =                       -262.6399448495736806

Computation Completed


Properties will be evaluated at   0.000000,   0.000000,   0.000000 [a0]

Properties computed using the SCF density matrix

  Nuclear Dipole Moment: [e a0]
     X:    55.0814      Y:    41.1737      Z:    17.9034

  Electronic Dipole Moment: [e a0]
     X:   -55.0814      Y:   -41.1737      Z:   -17.9034

  Dipole Moment: [e a0]
     X:     0.0000      Y:     0.0000      Z:    -0.0000     Total:     0.0000

  Dipole Moment: [D]
     X:     0.0000      Y:     0.0000      Z:    -0.0000     Total:     0.0000


*** tstop() called on atl1-1-01-013-6-r.pace.gatech.edu at Mon Nov 29 16:11:03 2021
Module time:
	user time   =      14.34 seconds =       0.24 minutes
	system time =       0.44 seconds =       0.01 minutes
	total time  =          8 seconds =       0.13 minutes
Total time:
	user time   =      37.11 seconds =       0.62 minutes
	system time =       1.32 seconds =       0.02 minutes
	total time  =         21 seconds =       0.35 minutes

  //>>>>>>>>>>>>>>>>>>>>>>>>>>>>>>>>>>>//
  //            Monomer B HF           //
  //<<<<<<<<<<<<<<<<<<<<<<<<<<<<<<<<<<<//


*** tstart() called on atl1-1-01-013-6-r.pace.gatech.edu
*** at Mon Nov 29 16:11:03 2021

   => Loading Basis Set <=

    Name: AUG-CC-PVDZ
    Role: ORBITAL
    Keyword: BASIS
    atoms 1-2, 11-12  entry N          line   218 file /storage/home/hhive1/csargent30/data/miniconda3/envs/psi4/share/psi4/basis/aug-cc-pvdz.gbs 
    atoms 3-6, 13-16  entry H          line    40 file /storage/home/hhive1/csargent30/data/miniconda3/envs/psi4/share/psi4/basis/aug-cc-pvdz.gbs 
    atoms 7-10, 17-20 entry C          line   182 file /storage/home/hhive1/csargent30/data/miniconda3/envs/psi4/share/psi4/basis/aug-cc-pvdz.gbs 


         ---------------------------------------------------------
                                   SCF
               by Justin Turney, Rob Parrish, Andy Simmonett
                          and Daniel G. A. Smith
                              RHF Reference
                        2 Threads,   6675 MiB Core
         ---------------------------------------------------------

  ==> Geometry <==

    Molecular point group: c1
    Full point group: C1

    Geometry (in Bohr), charge = 0, multiplicity = 1:

       Center              X                  Y                   Z               Mass       
    ------------   -----------------  -----------------  -----------------  -----------------
      Gh(N)          -1.330847580000     0.980326580000     0.426270370000    14.003074004430
      Gh(N)           3.953773330000     0.980326580000     0.426270370000    14.003074004430
      Gh(H)           3.567136740000     4.352185690000    -0.942309730000     1.007825032230
      Gh(H)          -0.944210980000     4.352185690000    -0.942309730000     1.007825032230
      Gh(H)          -0.944210980000    -2.391532530000     1.794850470000     1.007825032230
      Gh(H)           3.567136740000    -2.391532530000     1.794850470000     1.007825032230
      Gh(C)           2.622925760000     2.940979740000    -0.426270370000    12.000000000000
      Gh(C)           0.000000000000     2.940979740000    -0.426270370000    12.000000000000
      Gh(C)           0.000000000000    -0.980326580000     1.278811120000    12.000000000000
      Gh(C)           2.622925760000    -0.980326580000     1.278811120000    12.000000000000
         N           -1.330847580000   -32.185500760000    -6.628266220000    14.003074004430
         N            3.953773330000   -32.185500760000    -6.628266220000    14.003074004430
         H            3.567136740000   -28.813641650000    -7.996846330000     1.007825032230
         H           -0.944210980000   -28.813641650000    -7.996846330000     1.007825032230
         H           -0.944210980000   -35.557359870000    -5.259686120000     1.007825032230
         H            3.567136740000   -35.557359870000    -5.259686120000     1.007825032230
         C            2.622925760000   -30.224847600000    -7.480806970000    12.000000000000
         C            0.000000000000   -30.224847600000    -7.480806970000    12.000000000000
         C            0.000000000000   -34.146153920000    -5.775725480000    12.000000000000
         C            2.622925760000   -34.146153920000    -5.775725480000    12.000000000000

  Running in c1 symmetry.

  Rotational constants: A =      0.06511  B =      0.00069  C =      0.00069 [cm^-1]
  Rotational constants: A =   1952.03835  B =     20.69804  C =     20.56542 [MHz]
  Nuclear repulsion =  212.551731091174531

  Charge       = 0
  Multiplicity = 1
  Electrons    = 42
  Nalpha       = 21
  Nbeta        = 21

  ==> Algorithm <==

  SCF Algorithm Type is DF.
  DIIS enabled.
  MOM disabled.
  Fractional occupation disabled.
  Guess Type is SAD.
  Energy threshold   = 1.00e-10
  Density threshold  = 1.00e-10
  Integral threshold = 1.00e-12

  ==> Primary Basis <==

  Basis Set: AUG-CC-PVDZ
    Blend: AUG-CC-PVDZ
    Number of shells: 148
    Number of basis functions: 348
    Number of Cartesian functions: 372
    Spherical Harmonics?: true
    Max angular momentum: 2

   => Loading Basis Set <=

    Name: (AUG-CC-PVDZ AUX)
    Role: JKFIT
    Keyword: DF_BASIS_SCF
    atoms 1-2, 11-12  entry N          line   212 file /storage/home/hhive1/csargent30/data/miniconda3/envs/psi4/share/psi4/basis/aug-cc-pvdz-jkfit.gbs 
    atoms 3-6, 13-16  entry H          line    70 file /storage/home/hhive1/csargent30/data/miniconda3/envs/psi4/share/psi4/basis/aug-cc-pvdz-jkfit.gbs 
    atoms 7-10, 17-20 entry C          line   154 file /storage/home/hhive1/csargent30/data/miniconda3/envs/psi4/share/psi4/basis/aug-cc-pvdz-jkfit.gbs 

  ==> Integral Setup <==

  ==> DiskDFJK: Density-Fitted J/K Matrices <==

    J tasked:                  Yes
    K tasked:                  Yes
    wK tasked:                  No
    OpenMP threads:              2
    Integrals threads:           2
    Memory [MiB]:             5006
    Algorithm:                Core
    Integral Cache:           LOAD
    Schwarz Cutoff:          1E-12
    Fitting Condition:       1E-10

   => Auxiliary Basis Set <=

  Basis Set: (AUG-CC-PVDZ AUX)
    Blend: AUG-CC-PVDZ-JKFIT
    Number of shells: 432
    Number of basis functions: 1288
    Number of Cartesian functions: 1492
    Spherical Harmonics?: true
    Max angular momentum: 3

  Minimum eigenvalue in the overlap matrix is 9.4861598195E-06.
  Reciprocal condition number of the overlap matrix is 7.3988932965E-07.
    Using symmetric orthogonalization.

  ==> Pre-Iterations <==

  SCF Guess: Superposition of Atomic Densities via on-the-fly atomic UHF (no occupation information).

   -------------------------
    Irrep   Nso     Nmo    
   -------------------------
     A        348     348 
   -------------------------
    Total     348     348
   -------------------------

  ==> Iterations <==

                           Total Energy        Delta E     RMS |[F,P]|

   @DF-RHF iter SAD:  -262.32523125699038   -2.62325e+02   0.00000e+00 
   @DF-RHF iter   1:  -262.53940797997120   -2.14177e-01   1.11985e-03 DIIS
   @DF-RHF iter   2:  -262.62878837289003   -8.93804e-02   4.10664e-04 DIIS
   @DF-RHF iter   3:  -262.63862291743328   -9.83454e-03   1.28248e-04 DIIS
   @DF-RHF iter   4:  -262.63984767069377   -1.22475e-03   3.77599e-05 DIIS
   @DF-RHF iter   5:  -262.63993727115547   -8.96005e-05   7.55558e-06 DIIS
   @DF-RHF iter   6:  -262.63994382141618   -6.55026e-06   2.45264e-06 DIIS
   @DF-RHF iter   7:  -262.63994477378924   -9.52373e-07   6.40130e-07 DIIS
   @DF-RHF iter   8:  -262.63994484767784   -7.38886e-08   9.91693e-08 DIIS
   @DF-RHF iter   9:  -262.63994484966258   -1.98474e-09   1.88228e-08 DIIS
   @DF-RHF iter  10:  -262.63994484973421   -7.16227e-11   3.19151e-09 DIIS
   @DF-RHF iter  11:  -262.63994484973603   -1.81899e-12   5.22317e-10 DIIS
   @DF-RHF iter  12:  -262.63994484973642   -3.97904e-13   9.54358e-11 DIIS
  Energy and wave function converged.


  ==> Post-Iterations <==

    Orbital Energies [Eh]
    ---------------------

    Doubly Occupied:                                                      

       1A    -15.598072     2A    -15.598053     3A    -11.274239  
       4A    -11.274194     5A    -11.272975     6A    -11.272969  
       7A     -1.313347     8A     -1.224176     9A     -1.076803  
      10A     -0.922662    11A     -0.919282    12A     -0.760637  
      13A     -0.738402    14A     -0.706214    15A     -0.647687  
      16A     -0.580711    17A     -0.574369    18A     -0.497113  
      19A     -0.434288    20A     -0.415855    21A     -0.359924  

    Virtual:                                                              

      22A      0.022212    23A      0.034497    24A      0.039286  
      25A      0.040739    26A      0.040973    27A      0.048383  
      28A      0.058573    29A      0.058664    30A      0.067113  
      31A      0.079448    32A      0.084827    33A      0.099419  
      34A      0.100948    35A      0.103785    36A      0.108287  
      37A      0.108639    38A      0.114201    39A      0.114951  
      40A      0.122265    41A      0.123776    42A      0.125319  
      43A      0.125369    44A      0.128661    45A      0.130714  
      46A      0.132889    47A      0.133938    48A      0.151896  
      49A      0.152815    50A      0.158199    51A      0.159119  
      52A      0.161084    53A      0.161327    54A      0.163914  
      55A      0.175179    56A      0.176536    57A      0.186918  
      58A      0.197586    59A      0.203672    60A      0.203909  
      61A      0.206439    62A      0.212538    63A      0.222159  
      64A      0.233396    65A      0.239224    66A      0.250517  
      67A      0.254996    68A      0.267756    69A      0.270560  
      70A      0.278057    71A      0.287812    72A      0.293207  
      73A      0.295749    74A      0.302098    75A      0.314832  
      76A      0.320422    77A      0.320457    78A      0.327940  
      79A      0.331076    80A      0.343905    81A      0.355428  
      82A      0.357908    83A      0.364661    84A      0.380281  
      85A      0.382583    86A      0.385409    87A      0.398891  
      88A      0.401053    89A      0.409895    90A      0.419053  
      91A      0.424721    92A      0.425453    93A      0.433925  
      94A      0.437212    95A      0.441710    96A      0.452092  
      97A      0.460432    98A      0.460880    99A      0.471483  
     100A      0.475861   101A      0.478600   102A      0.492140  
     103A      0.504862   104A      0.507600   105A      0.514914  
     106A      0.523549   107A      0.524547   108A      0.528668  
     109A      0.535509   110A      0.554577   111A      0.557624  
     112A      0.561288   113A      0.564273   114A      0.570535  
     115A      0.581687   116A      0.587535   117A      0.591506  
     118A      0.593799   119A      0.595793   120A      0.608929  
     121A      0.614917   122A      0.619934   123A      0.636140  
     124A      0.643517   125A      0.644321   126A      0.649132  
     127A      0.651265   128A      0.679192   129A      0.685094  
     130A      0.685138   131A      0.687758   132A      0.689932  
     133A      0.690342   134A      0.694828   135A      0.703830  
     136A      0.719666   137A      0.728164   138A      0.746548  
     139A      0.746572   140A      0.754817   141A      0.766965  
     142A      0.775456   143A      0.781406   144A      0.793410  
     145A      0.799815   146A      0.802710   147A      0.810870  
     148A      0.811756   149A      0.819016   150A      0.824531  
     151A      0.831071   152A      0.847513   153A      0.847837  
     154A      0.848963   155A      0.868382   156A      0.880544  
     157A      0.886410   158A      0.887925   159A      0.894682  
     160A      0.905879   161A      0.928892   162A      0.929272  
     163A      0.939466   164A      0.947468   165A      0.949307  
     166A      0.970554   167A      0.976711   168A      0.986415  
     169A      0.996652   170A      0.998908   171A      1.013015  
     172A      1.032197   173A      1.033370   174A      1.046705  
     175A      1.051194   176A      1.076041   177A      1.089381  
     178A      1.090055   179A      1.100445   180A      1.122199  
     181A      1.124044   182A      1.130440   183A      1.134362  
     184A      1.140042   185A      1.158740   186A      1.168364  
     187A      1.170453   188A      1.173565   189A      1.191984  
     190A      1.193017   191A      1.200247   192A      1.222094  
     193A      1.235416   194A      1.238804   195A      1.250804  
     196A      1.307332   197A      1.309674   198A      1.318036  
     199A      1.326191   200A      1.329387   201A      1.331148  
     202A      1.346584   203A      1.388991   204A      1.414282  
     205A      1.448167   206A      1.451526   207A      1.455237  
     208A      1.478910   209A      1.486137   210A      1.486982  
     211A      1.488075   212A      1.499211   213A      1.502846  
     214A      1.518252   215A      1.572686   216A      1.574192  
     217A      1.587836   218A      1.635982   219A      1.640505  
     220A      1.648219   221A      1.659018   222A      1.676552  
     223A      1.697844   224A      1.716991   225A      1.746597  
     226A      1.755104   227A      1.783762   228A      1.815727  
     229A      1.893323   230A      1.916137   231A      1.964829  
     232A      1.987674   233A      2.031202   234A      2.070004  
     235A      2.091548   236A      2.101028   237A      2.102541  
     238A      2.119220   239A      2.142953   240A      2.156454  
     241A      2.158967   242A      2.163355   243A      2.190488  
     244A      2.193301   245A      2.194638   246A      2.200380  
     247A      2.202410   248A      2.227626   249A      2.234551  
     250A      2.240981   251A      2.249437   252A      2.309793  
     253A      2.312761   254A      2.319323   255A      2.355229  
     256A      2.384583   257A      2.418988   258A      2.430957  
     259A      2.435192   260A      2.437944   261A      2.438977  
     262A      2.472454   263A      2.486503   264A      2.498099  
     265A      2.519379   266A      2.522395   267A      2.524846  
     268A      2.545773   269A      2.568106   270A      2.584766  
     271A      2.592150   272A      2.606266   273A      2.625752  
     274A      2.665224   275A      2.675409   276A      2.686395  
     277A      2.713985   278A      2.716676   279A      2.718591  
     280A      2.726429   281A      2.767712   282A      2.844014  
     283A      2.865761   284A      2.903816   285A      2.939196  
     286A      2.947006   287A      2.955529   288A      2.973120  
     289A      3.001855   290A      3.017872   291A      3.032186  
     292A      3.058109   293A      3.065008   294A      3.094137  
     295A      3.113648   296A      3.220316   297A      3.245508  
     298A      3.255980   299A      3.284880   300A      3.289461  
     301A      3.321739   302A      3.337521   303A      3.340267  
     304A      3.348438   305A      3.351162   306A      3.366140  
     307A      3.412410   308A      3.413367   309A      3.470566  
     310A      3.501764   311A      3.514920   312A      3.521174  
     313A      3.590655   314A      3.604248   315A      3.605455  
     316A      3.627769   317A      3.700296   318A      3.818734  
     319A      3.830499   320A      3.940780   321A      3.968907  
     322A      3.977236   323A      4.011213   324A      4.194568  
     325A      4.242061   326A      4.253485   327A      4.441800  
     328A      4.546640   329A      4.579087   330A      4.867450  
     331A      4.975954   332A      5.057663   333A      5.261522  
     334A      5.316350   335A      5.630009   336A      5.691135  
     337A      5.826959   338A      5.952443   339A      6.283639  
     340A      6.306700   341A      6.453577   342A      6.631011  
     343A     18.125527   344A     18.207789   345A     19.017385  
     346A     19.342810   347A     25.286873   348A     25.374593  

    Final Occupation by Irrep:
              A 
    DOCC [    21 ]

  @DF-RHF Final Energy:  -262.63994484973642

   => Energetics <=

    Nuclear Repulsion Energy =            212.5517310911745312
    One-Electron Energy =                -775.4594095909583302
    Two-Electron Energy =                 300.2677336500473189
    Total Energy =                       -262.6399448497364233

Computation Completed


Properties will be evaluated at   0.000000,   0.000000,   0.000000 [a0]

Properties computed using the SCF density matrix

  Nuclear Dipole Moment: [e a0]
     X:    55.0814      Y: -1351.7910      Z:  -278.3872

  Electronic Dipole Moment: [e a0]
     X:   -55.0814      Y:  1351.7910      Z:   278.3872

  Dipole Moment: [e a0]
     X:     0.0000      Y:    -0.0000      Z:     0.0000     Total:     0.0000

  Dipole Moment: [D]
     X:     0.0000      Y:    -0.0000      Z:     0.0000     Total:     0.0000


*** tstop() called on atl1-1-01-013-6-r.pace.gatech.edu at Mon Nov 29 16:11:11 2021
Module time:
	user time   =      14.28 seconds =       0.24 minutes
	system time =       0.46 seconds =       0.01 minutes
	total time  =          8 seconds =       0.13 minutes
Total time:
	user time   =      51.40 seconds =       0.86 minutes
	system time =       1.78 seconds =       0.03 minutes
	total time  =         29 seconds =       0.48 minutes
  Constructing Basis Sets for SAPT...

   => Loading Basis Set <=

    Name: (AUG-CC-PVDZ AUX)
    Role: RIFIT
    Keyword: DF_BASIS_SAPT
    atoms 1-2, 11-12  entry N          line   158 file /storage/home/hhive1/csargent30/data/miniconda3/envs/psi4/share/psi4/basis/aug-cc-pvdz-ri.gbs 
    atoms 3-6, 13-16  entry H          line    30 file /storage/home/hhive1/csargent30/data/miniconda3/envs/psi4/share/psi4/basis/aug-cc-pvdz-ri.gbs 
    atoms 7-10, 17-20 entry C          line   112 file /storage/home/hhive1/csargent30/data/miniconda3/envs/psi4/share/psi4/basis/aug-cc-pvdz-ri.gbs 


  //>>>>>>>>>>>>>>>>>>>>>>>>>>>>>>>>>>>//
  //               SAPT0               //
  //<<<<<<<<<<<<<<<<<<<<<<<<<<<<<<<<<<<//


*** tstart() called on atl1-1-01-013-6-r.pace.gatech.edu
*** at Mon Nov 29 16:11:11 2021

        SAPT0  
    Ed Hohenstein
     6 June 2009

      Orbital Information
  --------------------------
    NSO        =       348
    NMO        =       348
    NRI        =      1048
    NOCC A     =        21
    NOCC B     =        21
    FOCC A     =         6
    FOCC B     =         6
    NVIR A     =       327
    NVIR B     =       327

    Elst10,r            =     0.000001513519 [Eh]
    Exch10              =    -0.000000000000 [Eh]
    Exch10 (S^2)        =    -0.000000000000 [Eh]

    Iter     Energy [mEh]          dE [mEh]         Residual      Time [s]
       1      -0.00000507       0.000005074       0.022202428             0
       2      -0.00000451      -0.000000568       0.004616991             0
       3      -0.00000478       0.000000272       0.002493902             1
       4      -0.00000490       0.000000124       0.000567690             1
       5      -0.00000488      -0.000000027       0.000253257             1
       6      -0.00000488       0.000000002       0.000085355             2
       7      -0.00000488       0.000000001       0.000030006             2
       8      -0.00000488       0.000000000       0.000007058             2
       9      -0.00000488      -0.000000000       0.000002148             3
      10      -0.00000488      -0.000000000       0.000000673             3

    CHF Iterations converged


    Iter     Energy [mEh]          dE [mEh]         Residual      Time [s]
       1      -0.00000507       0.000005074       0.022202429             1
       2      -0.00000451      -0.000000568       0.004616992             1
       3      -0.00000478       0.000000272       0.002493902             1
       4      -0.00000490       0.000000124       0.000567690             2
       5      -0.00000488      -0.000000027       0.000253257             2
       6      -0.00000488       0.000000002       0.000085355             2
       7      -0.00000488       0.000000001       0.000030006             3
       8      -0.00000488       0.000000000       0.000007058             3
       9      -0.00000488      -0.000000000       0.000002148             3
      10      -0.00000488      -0.000000000       0.000000673             4

    CHF Iterations converged

    Ind20,r (A<-B)      =    -0.000000004879 [Eh]
    Ind20,r (B<-A)      =    -0.000000004879 [Eh]
    Ind20,r             =    -0.000000009758 [Eh]
    Exch-Ind20,r (A<-B) =     0.000000000000 [Eh]
    Exch-Ind20,r (B<-A) =     0.000000000000 [Eh]
    Exch-Ind20,r        =     0.000000000000 [Eh]
    Disp20              =    -0.000001154378 [Eh]
    Disp20 (SS)         =    -0.000000577189 [Eh]
    Disp20 (OS)         =    -0.000000577189 [Eh]
    Exch-Disp20         =     0.000000000000 [Eh]
    Exch-Disp20 (SS)    =     0.000000000000 [Eh]
    Exch-Disp20 (OS)    =     0.000000000000 [Eh]

    SAPT Results 
  --------------------------------------------------------------------------------------------------------
    Electrostatics                  0.00151352 [mEh]       0.00094975 [kcal/mol]       0.00397374 [kJ/mol]
      Elst10,r                      0.00151352 [mEh]       0.00094975 [kcal/mol]       0.00397374 [kJ/mol]

    Exchange                       -0.00000000 [mEh]      -0.00000000 [kcal/mol]      -0.00000000 [kJ/mol]
      Exch10                       -0.00000000 [mEh]      -0.00000000 [kcal/mol]      -0.00000000 [kJ/mol]
      Exch10(S^2)                  -0.00000000 [mEh]      -0.00000000 [kcal/mol]      -0.00000000 [kJ/mol]

    Induction                      -0.00000744 [mEh]      -0.00000467 [kcal/mol]      -0.00001952 [kJ/mol]
      Ind20,r                      -0.00000976 [mEh]      -0.00000612 [kcal/mol]      -0.00002562 [kJ/mol]
      Exch-Ind20,r                  0.00000000 [mEh]       0.00000000 [kcal/mol]       0.00000000 [kJ/mol]
      delta HF,r (2)                0.00000232 [mEh]       0.00000146 [kcal/mol]       0.00000610 [kJ/mol]

    Dispersion                     -0.00115438 [mEh]      -0.00072438 [kcal/mol]      -0.00303082 [kJ/mol]
      Disp20                       -0.00115438 [mEh]      -0.00072438 [kcal/mol]      -0.00303082 [kJ/mol]
      Exch-Disp20                   0.00000000 [mEh]       0.00000000 [kcal/mol]       0.00000000 [kJ/mol]
      Disp20 (SS)                  -0.00057719 [mEh]      -0.00036219 [kcal/mol]      -0.00151541 [kJ/mol]
      Disp20 (OS)                  -0.00057719 [mEh]      -0.00036219 [kcal/mol]      -0.00151541 [kJ/mol]
      Exch-Disp20 (SS)              0.00000000 [mEh]       0.00000000 [kcal/mol]       0.00000000 [kJ/mol]
      Exch-Disp20 (OS)              0.00000000 [mEh]       0.00000000 [kcal/mol]       0.00000000 [kJ/mol]

  Total HF                          0.00150608 [mEh]       0.00094508 [kcal/mol]       0.00395422 [kJ/mol]
  Total SAPT0                       0.00035171 [mEh]       0.00022070 [kcal/mol]       0.00092340 [kJ/mol]

  Special recipe for scaled SAPT0 (see Manual):
    Electrostatics sSAPT0           0.00151352 [mEh]       0.00094975 [kcal/mol]       0.00397374 [kJ/mol]
    Exchange sSAPT0                -0.00000000 [mEh]      -0.00000000 [kcal/mol]      -0.00000000 [kJ/mol]
    Induction sSAPT0               -0.00000744 [mEh]      -0.00000467 [kcal/mol]      -0.00001952 [kJ/mol]
    Dispersion sSAPT0              -0.00115438 [mEh]      -0.00072438 [kcal/mol]      -0.00303082 [kJ/mol]
  Total sSAPT0                      0.00035171 [mEh]       0.00022070 [kcal/mol]       0.00092340 [kJ/mol]
  --------------------------------------------------------------------------------------------------------

*** tstop() called on atl1-1-01-013-6-r.pace.gatech.edu at Mon Nov 29 16:11:35 2021
Module time:
	user time   =      36.02 seconds =       0.60 minutes
	system time =       8.12 seconds =       0.14 minutes
	total time  =         24 seconds =       0.40 minutes
Total time:
	user time   =      87.68 seconds =       1.46 minutes
	system time =       9.91 seconds =       0.17 minutes
	total time  =         53 seconds =       0.88 minutes


Warning! sapt0 does not have an associated derived wavefunction.The returned wavefunction is the dimer SCF wavefunction.


    Psi4 stopped on: Monday, 29 November 2021 04:11PM
    Psi4 wall time for execution: 0:00:53.27

*** Psi4 exiting successfully. Buy a developer a beer!
