
    -----------------------------------------------------------------------
          Psi4: An Open-Source Ab Initio Electronic Structure Package
                               Psi4 1.4.1 release

                         Git: Rev {HEAD} cd00f19 


    D. G. A. Smith, L. A. Burns, A. C. Simmonett, R. M. Parrish,
    M. C. Schieber, R. Galvelis, P. Kraus, H. Kruse, R. Di Remigio,
    A. Alenaizan, A. M. James, S. Lehtola, J. P. Misiewicz, M. Scheurer,
    R. A. Shaw, J. B. Schriber, Y. Xie, Z. L. Glick, D. A. Sirianni,
    J. S. O'Brien, J. M. Waldrop, A. Kumar, E. G. Hohenstein,
    B. P. Pritchard, B. R. Brooks, H. F. Schaefer III, A. Yu. Sokolov,
    K. Patkowski, A. E. DePrince III, U. Bozkaya, R. A. King,
    F. A. Evangelista, J. M. Turney, T. D. Crawford, C. D. Sherrill,
    J. Chem. Phys. 152(18) 184108 (2020). https://doi.org/10.1063/5.0006002

                            Additional Code Authors
    E. T. Seidl, C. L. Janssen, E. F. Valeev, M. L. Leininger,
    J. F. Gonthier, R. M. Richard, H. R. McAlexander, M. Saitow, X. Wang,
    P. Verma, and M. H. Lechner

             Previous Authors, Complete List of Code Contributors,
                       and Citations for Specific Modules
    https://github.com/psi4/psi4/blob/master/codemeta.json
    https://github.com/psi4/psi4/graphs/contributors
    http://psicode.org/psi4manual/master/introduction.html#citing-psifour

    -----------------------------------------------------------------------


    Psi4 started on: Monday, 29 November 2021 04:10PM

    Process ID: 305506
    Host:       atl1-1-01-015-9-r.pace.gatech.edu
    PSIDATADIR: /storage/home/hhive1/csargent30/data/miniconda3/envs/psi4/share/psi4
    Memory:     500.0 MiB
    Threads:    2
    
  ==> Input File <==

--------------------------------------------------------------------------
# PSI4 file produced by CrystaLattE

# Generated from:               pyrazine.xyz
# Psithon input for N-mer:      2mer-0+36
# Number of atoms per monomer:  [10, 10]
# Number of replicas:           4
# COM priority:                 1.110745015531e-04
# Minimum COM separations:      11.009 
# Separation priority:          3.589710002258e-04
# Minimum monomer separations:  7.446 
# Cutoff priority:              2.551207718712e-05
# Nuclear repulsion energy:     510.55765682505955

memory 7 GB

molecule Dimer_0_36 {
  N           -1.33084758       0.98032658       0.42627037 
  N            3.95377333       0.98032658       0.42627037 
  H            3.56713674       4.35218569      -0.94230973 
  H           -0.94421098       4.35218569      -0.94230973 
  H           -0.94421098      -2.39153253       1.79485047 
  H            3.56713674      -2.39153253       1.79485047 
  C            2.62292576       2.94097974      -0.42627037 
  C            0.00000000       2.94097974      -0.42627037 
  C            0.00000000      -0.98032658       1.27881112 
  C            2.62292576      -0.98032658       1.27881112 
--
  N          -18.95329959     -10.07494920       0.42627037 
  N          -13.66867868     -10.07494920       0.42627037 
  H          -14.05531527      -6.70309009      -0.94230973 
  H          -18.56666299      -6.70309009      -0.94230973 
  H          -18.56666299     -13.44680831       1.79485047 
  H          -14.05531527     -13.44680831       1.79485047 
  C          -14.99952625      -8.11429604      -0.42627037 
  C          -17.62245201      -8.11429604      -0.42627037 
  C          -17.62245201     -12.03560236       1.27881112 
  C          -14.99952625     -12.03560236       1.27881112 
units = au
no_com
no_reorient
}

set {
  e_convergence 10
  d_convergence 10
  scf_type df
  mp2_type df
  cc_type df
  freeze_core true
}

energy('sapt0/aug-cc-pvdz')

--------------------------------------------------------------------------

  Memory set to   6.519 GiB by Python driver.

Scratch directory: /tmp/

Scratch directory: /tmp/

  //>>>>>>>>>>>>>>>>>>>>>>>>>>>>>>>>>>>//
  //              Dimer HF             //
  //<<<<<<<<<<<<<<<<<<<<<<<<<<<<<<<<<<<//


*** tstart() called on atl1-1-01-015-9-r.pace.gatech.edu
*** at Mon Nov 29 16:10:41 2021

   => Loading Basis Set <=

    Name: AUG-CC-PVDZ
    Role: ORBITAL
    Keyword: BASIS
    atoms 1-2, 11-12  entry N          line   218 file /storage/home/hhive1/csargent30/data/miniconda3/envs/psi4/share/psi4/basis/aug-cc-pvdz.gbs 
    atoms 3-6, 13-16  entry H          line    40 file /storage/home/hhive1/csargent30/data/miniconda3/envs/psi4/share/psi4/basis/aug-cc-pvdz.gbs 
    atoms 7-10, 17-20 entry C          line   182 file /storage/home/hhive1/csargent30/data/miniconda3/envs/psi4/share/psi4/basis/aug-cc-pvdz.gbs 


         ---------------------------------------------------------
                                   SCF
               by Justin Turney, Rob Parrish, Andy Simmonett
                          and Daniel G. A. Smith
                              RHF Reference
                        2 Threads,   6675 MiB Core
         ---------------------------------------------------------

  ==> Geometry <==

    Molecular point group: c1
    Full point group: C1

    Geometry (in Bohr), charge = 0, multiplicity = 1:

       Center              X                  Y                   Z               Mass       
    ------------   -----------------  -----------------  -----------------  -----------------
         N           -1.330847580000     0.980326580000     0.426270370000    14.003074004430
         N            3.953773330000     0.980326580000     0.426270370000    14.003074004430
         H            3.567136740000     4.352185690000    -0.942309730000     1.007825032230
         H           -0.944210980000     4.352185690000    -0.942309730000     1.007825032230
         H           -0.944210980000    -2.391532530000     1.794850470000     1.007825032230
         H            3.567136740000    -2.391532530000     1.794850470000     1.007825032230
         C            2.622925760000     2.940979740000    -0.426270370000    12.000000000000
         C            0.000000000000     2.940979740000    -0.426270370000    12.000000000000
         C            0.000000000000    -0.980326580000     1.278811120000    12.000000000000
         C            2.622925760000    -0.980326580000     1.278811120000    12.000000000000
         N          -18.953299590000   -10.074949200000     0.426270370000    14.003074004430
         N          -13.668678680000   -10.074949200000     0.426270370000    14.003074004430
         H          -14.055315270000    -6.703090090000    -0.942309730000     1.007825032230
         H          -18.566662990000    -6.703090090000    -0.942309730000     1.007825032230
         H          -18.566662990000   -13.446808310000     1.794850470000     1.007825032230
         H          -14.055315270000   -13.446808310000     1.794850470000     1.007825032230
         C          -14.999526250000    -8.114296040000    -0.426270370000    12.000000000000
         C          -17.622452010000    -8.114296040000    -0.426270370000    12.000000000000
         C          -17.622452010000   -12.035602360000     1.278811120000    12.000000000000
         C          -14.999526250000   -12.035602360000     1.278811120000    12.000000000000

  Running in c1 symmetry.

  Rotational constants: A =      0.10074  B =      0.00199  C =      0.00196 [cm^-1]
  Rotational constants: A =   3019.96132  B =     59.66886  C =     58.66148 [MHz]
  Nuclear repulsion =  510.557656822755462

  Charge       = 0
  Multiplicity = 1
  Electrons    = 84
  Nalpha       = 42
  Nbeta        = 42

  ==> Algorithm <==

  SCF Algorithm Type is DF.
  DIIS enabled.
  MOM disabled.
  Fractional occupation disabled.
  Guess Type is SAD.
  Energy threshold   = 1.00e-10
  Density threshold  = 1.00e-10
  Integral threshold = 1.00e-12

  ==> Primary Basis <==

  Basis Set: AUG-CC-PVDZ
    Blend: AUG-CC-PVDZ
    Number of shells: 148
    Number of basis functions: 348
    Number of Cartesian functions: 372
    Spherical Harmonics?: true
    Max angular momentum: 2

   => Loading Basis Set <=

    Name: (AUG-CC-PVDZ AUX)
    Role: JKFIT
    Keyword: DF_BASIS_SCF
    atoms 1-2, 11-12  entry N          line   212 file /storage/home/hhive1/csargent30/data/miniconda3/envs/psi4/share/psi4/basis/aug-cc-pvdz-jkfit.gbs 
    atoms 3-6, 13-16  entry H          line    70 file /storage/home/hhive1/csargent30/data/miniconda3/envs/psi4/share/psi4/basis/aug-cc-pvdz-jkfit.gbs 
    atoms 7-10, 17-20 entry C          line   154 file /storage/home/hhive1/csargent30/data/miniconda3/envs/psi4/share/psi4/basis/aug-cc-pvdz-jkfit.gbs 

  ==> Integral Setup <==

  ==> DiskDFJK: Density-Fitted J/K Matrices <==

    J tasked:                  Yes
    K tasked:                  Yes
    wK tasked:                  No
    OpenMP threads:              2
    Integrals threads:           2
    Memory [MiB]:             5006
    Algorithm:                Core
    Integral Cache:           SAVE
    Schwarz Cutoff:          1E-12
    Fitting Condition:       1E-10

   => Auxiliary Basis Set <=

  Basis Set: (AUG-CC-PVDZ AUX)
    Blend: AUG-CC-PVDZ-JKFIT
    Number of shells: 432
    Number of basis functions: 1288
    Number of Cartesian functions: 1492
    Spherical Harmonics?: true
    Max angular momentum: 3

  Minimum eigenvalue in the overlap matrix is 8.9212491322E-06.
  Reciprocal condition number of the overlap matrix is 6.9567512291E-07.
    Using symmetric orthogonalization.

  ==> Pre-Iterations <==

  SCF Guess: Superposition of Atomic Densities via on-the-fly atomic UHF (no occupation information).

   -------------------------
    Irrep   Nso     Nmo    
   -------------------------
     A        348     348 
   -------------------------
    Total     348     348
   -------------------------

  ==> Iterations <==

                           Total Energy        Delta E     RMS |[F,P]|

   @DF-RHF iter SAD:  -524.65046469838057   -5.24650e+02   0.00000e+00 
   @DF-RHF iter   1:  -525.07893868187534   -4.28474e-01   1.58363e-03 DIIS
   @DF-RHF iter   2:  -525.25769487871139   -1.78756e-01   5.80628e-04 DIIS
   @DF-RHF iter   3:  -525.27735727719937   -1.96624e-02   1.81311e-04 DIIS
   @DF-RHF iter   4:  -525.27980586030662   -2.44858e-03   5.33777e-05 DIIS
   @DF-RHF iter   5:  -525.27998491449739   -1.79054e-04   1.06873e-05 DIIS
   @DF-RHF iter   6:  -525.27999801279304   -1.30983e-05   3.46723e-06 DIIS
   @DF-RHF iter   7:  -525.27999991532351   -1.90253e-06   9.05526e-07 DIIS
   @DF-RHF iter   8:  -525.28000006273101   -1.47407e-07   1.53695e-07 DIIS
   @DF-RHF iter   9:  -525.28000006672983   -3.99882e-09   6.61497e-08 DIIS
   @DF-RHF iter  10:  -525.28000006713262   -4.02792e-10   1.70909e-08 DIIS
   @DF-RHF iter  11:  -525.28000006717616   -4.35421e-11   2.82331e-09 DIIS
   @DF-RHF iter  12:  -525.28000006717787   -1.70530e-12   1.08068e-09 DIIS
   @DF-RHF iter  13:  -525.28000006717855   -6.82121e-13   5.93183e-10 DIIS
   @DF-RHF iter  14:  -525.28000006717900   -4.54747e-13   2.78106e-10 DIIS
   @DF-RHF iter  15:  -525.28000006717843    5.68434e-13   1.07909e-10 DIIS
   @DF-RHF iter  16:  -525.28000006717969   -1.25056e-12   4.02914e-11 DIIS
  Energy and wave function converged.


  ==> Post-Iterations <==

    Orbital Energies [Eh]
    ---------------------

    Doubly Occupied:                                                      

       1A    -15.597749     2A    -15.597749     3A    -15.597729  
       4A    -15.597729     5A    -11.273923     6A    -11.273923  
       7A    -11.273806     8A    -11.273806     9A    -11.272674  
      10A    -11.272674    11A    -11.272565    12A    -11.272565  
      13A     -1.313014    14A     -1.313014    15A     -1.223847  
      16A     -1.223847    17A     -1.076454    18A     -1.076453  
      19A     -0.922321    20A     -0.922318    21A     -0.918931  
      22A     -0.918930    23A     -0.760296    24A     -0.760294  
      25A     -0.738044    26A     -0.738040    27A     -0.705876  
      28A     -0.705875    29A     -0.647333    30A     -0.647332  
      31A     -0.580359    32A     -0.580358    33A     -0.574038  
      34A     -0.574037    35A     -0.496805    36A     -0.496804  
      37A     -0.433971    38A     -0.433971    39A     -0.415535  
      40A     -0.415534    41A     -0.359572    42A     -0.359572  

    Virtual:                                                              

      43A      0.031440    44A      0.036065    45A      0.040911  
      46A      0.040914    47A      0.046029    48A      0.053505  
      49A      0.060177    50A      0.065463    51A      0.067523  
      52A      0.068137    53A      0.099134    54A      0.099734  
      55A      0.101626    56A      0.102313    57A      0.113192  
      58A      0.114489    59A      0.114541    60A      0.115798  
      61A      0.118691    62A      0.121137    63A      0.125440  
      64A      0.126622    65A      0.132536    66A      0.133501  
      67A      0.133757    68A      0.142948    69A      0.157231  
      70A      0.157266    71A      0.159679    72A      0.160346  
      73A      0.161095    74A      0.164231    75A      0.167506  
      76A      0.177806    77A      0.181729    78A      0.185217  
      79A      0.187445    80A      0.189149    81A      0.203794  
      82A      0.204533    83A      0.211987    84A      0.225331  
      85A      0.250722    86A      0.250998    87A      0.266987  
      88A      0.270664    89A      0.275829    90A      0.280302  
      91A      0.287728    92A      0.289078    93A      0.293785  
      94A      0.294971    95A      0.296257    96A      0.303466  
      97A      0.317881    98A      0.318643    99A      0.321579  
     100A      0.325569   101A      0.352877   102A      0.358261  
     103A      0.358298   104A      0.362660   105A      0.364674  
     106A      0.367812   107A      0.383858   108A      0.385705  
     109A      0.399546   110A      0.401504   111A      0.410292  
     112A      0.413102   113A      0.427770   114A      0.429354  
     115A      0.434316   116A      0.434574   117A      0.437828  
     118A      0.440140   119A      0.453375   120A      0.454289  
     121A      0.471989   122A      0.475075   123A      0.492748  
     124A      0.492919   125A      0.506227   126A      0.506255  
     127A      0.515764   128A      0.515897   129A      0.524166  
     130A      0.526488   131A      0.528512   132A      0.538445  
     133A      0.554991   134A      0.555146   135A      0.571278  
     136A      0.572267   137A      0.587494   138A      0.588257  
     139A      0.592838   140A      0.593116   141A      0.595931  
     142A      0.597331   143A      0.609454   144A      0.609526  
     145A      0.641468   146A      0.644175   147A      0.645858  
     148A      0.649757   149A      0.685340   150A      0.685480  
     151A      0.687863   152A      0.688005   153A      0.688535  
     154A      0.690043   155A      0.691101   156A      0.694355  
     157A      0.697250   158A      0.697760   159A      0.705016  
     160A      0.710427   161A      0.747898   162A      0.748578  
     163A      0.755264   164A      0.755770   165A      0.767029  
     166A      0.768030   167A      0.781223   168A      0.782741  
     169A      0.800695   170A      0.801120   171A      0.802857  
     172A      0.803803   173A      0.818275   174A      0.821415  
     175A      0.831527   176A      0.833257   177A      0.848288  
     178A      0.849409   179A      0.880900   180A      0.881469  
     181A      0.886619   182A      0.887458   183A      0.895077  
     184A      0.895186   185A      0.929502   186A      0.929916  
     187A      0.939590   188A      0.941165   189A      0.949135  
     190A      0.952316   191A      0.998033   192A      0.998416  
     193A      0.999786   194A      1.001607   195A      1.013325  
     196A      1.013345   197A      1.034409   198A      1.036179  
     199A      1.051550   200A      1.051648   201A      1.089711  
     202A      1.089727   203A      1.100376   204A      1.102179  
     205A      1.122506   206A      1.123698   207A      1.124808  
     208A      1.125130   209A      1.134629   210A      1.135923  
     211A      1.159051   212A      1.159691   213A      1.173817  
     214A      1.174697   215A      1.235652   216A      1.236215  
     217A      1.239267   218A      1.239582   219A      1.310912  
     220A      1.311241   221A      1.331066   222A      1.332129  
     223A      1.414634   224A      1.414751   225A      1.451621  
     226A      1.454127   227A      1.486243   228A      1.487470  
     229A      1.488705   230A      1.489853   231A      1.500428  
     232A      1.501112   233A      1.503217   234A      1.505178  
     235A      1.518759   236A      1.520408   237A      1.572950  
     238A      1.573166   239A      1.574127   240A      1.575745  
     241A      1.587524   242A      1.590232   243A      1.635794  
     244A      1.637086   245A      1.641059   246A      1.641616  
     247A      1.650173   248A      1.653814   249A      1.678543  
     250A      1.678915   251A      1.717438   252A      1.717566  
     253A      1.746967   254A      1.746974   255A      1.755420  
     256A      1.755575   257A      1.784124   258A      1.787010  
     259A      1.816089   260A      1.816295   261A      1.893591  
     262A      1.893983   263A      1.916608   264A      1.916738  
     265A      1.964566   266A      1.966674   267A      1.988531  
     268A      1.989000   269A      2.031385   270A      2.032120  
     271A      2.091908   272A      2.092002   273A      2.100945  
     274A      2.102529   275A      2.143666   276A      2.143965  
     277A      2.163414   278A      2.164284   279A      2.190896  
     280A      2.190956   281A      2.193704   282A      2.195577  
     283A      2.200412   284A      2.201528   285A      2.202812  
     286A      2.202813   287A      2.228130   288A      2.228153  
     289A      2.313061   290A      2.314717   291A      2.356083  
     292A      2.357014   293A      2.431086   294A      2.432423  
     295A      2.439368   296A      2.439713   297A      2.519559  
     298A      2.520962   299A      2.522813   300A      2.523130  
     301A      2.584423   302A      2.586393   303A      2.606226  
     304A      2.607167   305A      2.665353   306A      2.665944  
     307A      2.675677   308A      2.675861   309A      2.686417  
     310A      2.688253   311A      2.715106   312A      2.715122  
     313A      2.719337   314A      2.719702   315A      2.844329  
     316A      2.844389   317A      2.866083   318A      2.866147  
     319A      2.939475   320A      2.940049   321A      3.001877  
     322A      3.003036   323A      3.017609   324A      3.019217  
     325A      3.031993   326A      3.034099   327A      3.094731  
     328A      3.096470   329A      3.219837   330A      3.225749  
     331A      3.256231   332A      3.256629   333A      3.285334  
     334A      3.285733   335A      3.366604   336A      3.366794  
     337A      3.413788   338A      3.413972   339A      3.515357  
     340A      3.515372   341A      3.590876   342A      3.592709  
     343A      3.627881   344A      3.628641   345A      3.977220  
     346A      3.978618   347A      4.253524   348A      4.254826  

    Final Occupation by Irrep:
              A 
    DOCC [    42 ]

  @DF-RHF Final Energy:  -525.28000006717969

   => Energetics <=

    Nuclear Repulsion Energy =            510.5576568227554617
    One-Electron Energy =               -1721.8559802466379551
    Two-Electron Energy =                 686.0183233567028083
    Total Energy =                       -525.2800000671796852

Computation Completed


Properties will be evaluated at   0.000000,   0.000000,   0.000000 [a0]

Properties computed using the SCF density matrix

  Nuclear Dipole Moment: [e a0]
     X:  -629.9801      Y:  -381.9742      Z:    35.8067

  Electronic Dipole Moment: [e a0]
     X:   629.9801      Y:   381.9742      Z:   -35.8067

  Dipole Moment: [e a0]
     X:     0.0000      Y:     0.0000      Z:     0.0000     Total:     0.0000

  Dipole Moment: [D]
     X:     0.0000      Y:     0.0000      Z:     0.0000     Total:     0.0000


*** tstop() called on atl1-1-01-015-9-r.pace.gatech.edu at Mon Nov 29 16:10:57 2021
Module time:
	user time   =      29.03 seconds =       0.48 minutes
	system time =       1.14 seconds =       0.02 minutes
	total time  =         16 seconds =       0.27 minutes
Total time:
	user time   =      29.03 seconds =       0.48 minutes
	system time =       1.14 seconds =       0.02 minutes
	total time  =         16 seconds =       0.27 minutes

  //>>>>>>>>>>>>>>>>>>>>>>>>>>>>>>>>>>>//
  //            Monomer A HF           //
  //<<<<<<<<<<<<<<<<<<<<<<<<<<<<<<<<<<<//


*** tstart() called on atl1-1-01-015-9-r.pace.gatech.edu
*** at Mon Nov 29 16:10:57 2021

   => Loading Basis Set <=

    Name: AUG-CC-PVDZ
    Role: ORBITAL
    Keyword: BASIS
    atoms 1-2, 11-12  entry N          line   218 file /storage/home/hhive1/csargent30/data/miniconda3/envs/psi4/share/psi4/basis/aug-cc-pvdz.gbs 
    atoms 3-6, 13-16  entry H          line    40 file /storage/home/hhive1/csargent30/data/miniconda3/envs/psi4/share/psi4/basis/aug-cc-pvdz.gbs 
    atoms 7-10, 17-20 entry C          line   182 file /storage/home/hhive1/csargent30/data/miniconda3/envs/psi4/share/psi4/basis/aug-cc-pvdz.gbs 


         ---------------------------------------------------------
                                   SCF
               by Justin Turney, Rob Parrish, Andy Simmonett
                          and Daniel G. A. Smith
                              RHF Reference
                        2 Threads,   6675 MiB Core
         ---------------------------------------------------------

  ==> Geometry <==

    Molecular point group: c1
    Full point group: C1

    Geometry (in Bohr), charge = 0, multiplicity = 1:

       Center              X                  Y                   Z               Mass       
    ------------   -----------------  -----------------  -----------------  -----------------
         N           -1.330847580000     0.980326580000     0.426270370000    14.003074004430
         N            3.953773330000     0.980326580000     0.426270370000    14.003074004430
         H            3.567136740000     4.352185690000    -0.942309730000     1.007825032230
         H           -0.944210980000     4.352185690000    -0.942309730000     1.007825032230
         H           -0.944210980000    -2.391532530000     1.794850470000     1.007825032230
         H            3.567136740000    -2.391532530000     1.794850470000     1.007825032230
         C            2.622925760000     2.940979740000    -0.426270370000    12.000000000000
         C            0.000000000000     2.940979740000    -0.426270370000    12.000000000000
         C            0.000000000000    -0.980326580000     1.278811120000    12.000000000000
         C            2.622925760000    -0.980326580000     1.278811120000    12.000000000000
      Gh(N)         -18.953299590000   -10.074949200000     0.426270370000    14.003074004430
      Gh(N)         -13.668678680000   -10.074949200000     0.426270370000    14.003074004430
      Gh(H)         -14.055315270000    -6.703090090000    -0.942309730000     1.007825032230
      Gh(H)         -18.566662990000    -6.703090090000    -0.942309730000     1.007825032230
      Gh(H)         -18.566662990000   -13.446808310000     1.794850470000     1.007825032230
      Gh(H)         -14.055315270000   -13.446808310000     1.794850470000     1.007825032230
      Gh(C)         -14.999526250000    -8.114296040000    -0.426270370000    12.000000000000
      Gh(C)         -17.622452010000    -8.114296040000    -0.426270370000    12.000000000000
      Gh(C)         -17.622452010000   -12.035602360000     1.278811120000    12.000000000000
      Gh(C)         -14.999526250000   -12.035602360000     1.278811120000    12.000000000000

  Running in c1 symmetry.

  Rotational constants: A =      0.10074  B =      0.00199  C =      0.00196 [cm^-1]
  Rotational constants: A =   3019.96132  B =     59.66886  C =     58.66148 [MHz]
  Nuclear repulsion =  212.551731110485349

  Charge       = 0
  Multiplicity = 1
  Electrons    = 42
  Nalpha       = 21
  Nbeta        = 21

  ==> Algorithm <==

  SCF Algorithm Type is DF.
  DIIS enabled.
  MOM disabled.
  Fractional occupation disabled.
  Guess Type is SAD.
  Energy threshold   = 1.00e-10
  Density threshold  = 1.00e-10
  Integral threshold = 1.00e-12

  ==> Primary Basis <==

  Basis Set: AUG-CC-PVDZ
    Blend: AUG-CC-PVDZ
    Number of shells: 148
    Number of basis functions: 348
    Number of Cartesian functions: 372
    Spherical Harmonics?: true
    Max angular momentum: 2

   => Loading Basis Set <=

    Name: (AUG-CC-PVDZ AUX)
    Role: JKFIT
    Keyword: DF_BASIS_SCF
    atoms 1-2, 11-12  entry N          line   212 file /storage/home/hhive1/csargent30/data/miniconda3/envs/psi4/share/psi4/basis/aug-cc-pvdz-jkfit.gbs 
    atoms 3-6, 13-16  entry H          line    70 file /storage/home/hhive1/csargent30/data/miniconda3/envs/psi4/share/psi4/basis/aug-cc-pvdz-jkfit.gbs 
    atoms 7-10, 17-20 entry C          line   154 file /storage/home/hhive1/csargent30/data/miniconda3/envs/psi4/share/psi4/basis/aug-cc-pvdz-jkfit.gbs 

  ==> Integral Setup <==

  ==> DiskDFJK: Density-Fitted J/K Matrices <==

    J tasked:                  Yes
    K tasked:                  Yes
    wK tasked:                  No
    OpenMP threads:              2
    Integrals threads:           2
    Memory [MiB]:             5006
    Algorithm:                Core
    Integral Cache:           LOAD
    Schwarz Cutoff:          1E-12
    Fitting Condition:       1E-10

   => Auxiliary Basis Set <=

  Basis Set: (AUG-CC-PVDZ AUX)
    Blend: AUG-CC-PVDZ-JKFIT
    Number of shells: 432
    Number of basis functions: 1288
    Number of Cartesian functions: 1492
    Spherical Harmonics?: true
    Max angular momentum: 3

  Minimum eigenvalue in the overlap matrix is 8.9212491322E-06.
  Reciprocal condition number of the overlap matrix is 6.9567512291E-07.
    Using symmetric orthogonalization.

  ==> Pre-Iterations <==

  SCF Guess: Superposition of Atomic Densities via on-the-fly atomic UHF (no occupation information).

   -------------------------
    Irrep   Nso     Nmo    
   -------------------------
     A        348     348 
   -------------------------
    Total     348     348
   -------------------------

  ==> Iterations <==

                           Total Energy        Delta E     RMS |[F,P]|

   @DF-RHF iter SAD:  -262.32523130268112   -2.62325e+02   0.00000e+00 
   @DF-RHF iter   1:  -262.53942282917023   -2.14192e-01   1.11987e-03 DIIS
   @DF-RHF iter   2:  -262.62880385325616   -8.93810e-02   4.10668e-04 DIIS
   @DF-RHF iter   3:  -262.63863854585361   -9.83469e-03   1.28246e-04 DIIS
   @DF-RHF iter   4:  -262.63986327589515   -1.22473e-03   3.77602e-05 DIIS
   @DF-RHF iter   5:  -262.63995287667115   -8.96008e-05   7.55582e-06 DIIS
   @DF-RHF iter   6:  -262.63995942723500   -6.55056e-06   2.45271e-06 DIIS
   @DF-RHF iter   7:  -262.63996037966371   -9.52429e-07   6.40142e-07 DIIS
   @DF-RHF iter   8:  -262.63996045355572   -7.38920e-08   9.91732e-08 DIIS
   @DF-RHF iter   9:  -262.63996045554171   -1.98600e-09   1.88302e-08 DIIS
   @DF-RHF iter  10:  -262.63996045561277   -7.10543e-11   3.25893e-09 DIIS
   @DF-RHF iter  11:  -262.63996045561419   -1.42109e-12   9.93527e-10 DIIS
   @DF-RHF iter  12:  -262.63996045561453   -3.41061e-13   4.25944e-10 DIIS
   @DF-RHF iter  13:  -262.63996045561453    0.00000e+00   7.27741e-11 DIIS
  Energy and wave function converged.


  ==> Post-Iterations <==

    Orbital Energies [Eh]
    ---------------------

    Doubly Occupied:                                                      

       1A    -15.598073     2A    -15.598054     3A    -11.274235  
       4A    -11.274189     5A    -11.272973     6A    -11.272963  
       7A     -1.313347     8A     -1.224176     9A     -1.076803  
      10A     -0.922663    11A     -0.919283    12A     -0.760637  
      13A     -0.738404    14A     -0.706214    15A     -0.647688  
      16A     -0.580712    17A     -0.574370    18A     -0.497113  
      19A     -0.434288    20A     -0.415855    21A     -0.359924  

    Virtual:                                                              

      22A      0.021744    23A      0.032927    24A      0.038489  
      25A      0.039791    26A      0.043032    27A      0.051811  
      28A      0.059901    29A      0.063648    30A      0.067272  
      31A      0.080213    32A      0.085225    33A      0.099062  
      34A      0.099785    35A      0.104959    36A      0.108080  
      37A      0.110242    38A      0.114307    39A      0.116218  
      40A      0.120208    41A      0.123079    42A      0.125329  
      43A      0.127486    44A      0.130371    45A      0.131711  
      46A      0.132677    47A      0.142946    48A      0.153103  
      49A      0.153279    50A      0.159061    51A      0.159507  
      52A      0.162299    53A      0.165652    54A      0.171649  
      55A      0.181836    56A      0.183106    57A      0.187554  
      58A      0.200003    59A      0.203897    60A      0.205462  
      61A      0.206999    62A      0.216786    63A      0.224699  
      64A      0.235085    65A      0.243826    66A      0.251060  
      67A      0.256194    68A      0.267044    69A      0.271682  
      70A      0.280379    71A      0.288179    72A      0.294762  
      73A      0.299178    74A      0.303166    75A      0.317576  
      76A      0.320617    77A      0.324872    78A      0.330546  
      79A      0.334284    80A      0.347582    81A      0.357873  
      82A      0.358836    83A      0.366050    84A      0.383834  
      85A      0.384890    86A      0.386539    87A      0.399425  
      88A      0.403671    89A      0.410314    90A      0.423533  
      91A      0.425802    92A      0.428530    93A      0.434052  
      94A      0.438609    95A      0.443128    96A      0.453496  
      97A      0.461583    98A      0.462573    99A      0.471498  
     100A      0.477817   101A      0.481745   102A      0.492514  
     103A      0.505946   104A      0.508953   105A      0.515656  
     106A      0.523793   107A      0.526134   108A      0.532756  
     109A      0.536495   110A      0.554618   111A      0.559451  
     112A      0.562009   113A      0.565205   114A      0.571501  
     115A      0.583875   116A      0.587845   117A      0.594139  
     118A      0.594687   119A      0.596727   120A      0.608985  
     121A      0.616851   122A      0.621001   123A      0.636638  
     124A      0.644633   125A      0.645412   126A      0.649708  
     127A      0.651925   128A      0.680718   129A      0.685002  
     130A      0.685859   131A      0.687960   132A      0.690133  
     133A      0.693790   134A      0.696551   135A      0.706271  
     136A      0.721473   137A      0.729799   138A      0.747285  
     139A      0.750731   140A      0.755197   141A      0.767165  
     142A      0.776147   143A      0.781577   144A      0.794154  
     145A      0.800533   146A      0.802867   147A      0.812492  
     148A      0.815049   149A      0.820728   150A      0.825140  
     151A      0.832245   152A      0.847978   153A      0.848454  
     154A      0.850778   155A      0.872211   156A      0.880914  
     157A      0.886652   158A      0.888595   159A      0.894799  
     160A      0.906653   161A      0.929185   162A      0.929757  
     163A      0.940974   164A      0.948620   165A      0.950650  
     166A      0.971099   167A      0.977220   168A      0.987223  
     169A      0.998068   170A      1.000415   171A      1.013030  
     172A      1.032958   173A      1.035310   174A      1.047361  
     175A      1.051239   176A      1.077267   177A      1.089411  
     178A      1.090651   179A      1.100988   180A      1.122746  
     181A      1.124547   182A      1.132083   183A      1.135238  
     184A      1.141243   185A      1.159074   186A      1.168970  
     187A      1.171751   188A      1.174059   189A      1.193266  
     190A      1.194179   191A      1.200974   192A      1.223034  
     193A      1.235620   194A      1.239144   195A      1.251311  
     196A      1.308296   197A      1.310805   198A      1.318645  
     199A      1.327196   200A      1.330089   201A      1.331487  
     202A      1.347373   203A      1.390339   204A      1.414345  
     205A      1.448728   206A      1.452973   207A      1.455722  
     208A      1.479503   209A      1.486559   210A      1.487640  
     211A      1.489181   212A      1.500534   213A      1.503706  
     214A      1.519196   215A      1.572745   216A      1.574655  
     217A      1.588503   218A      1.636286   219A      1.640896  
     220A      1.651277   221A      1.660216   222A      1.678329  
     223A      1.698430   224A      1.717175   225A      1.746623  
     226A      1.755135   227A      1.785151   228A      1.815821  
     229A      1.893419   230A      1.916325   231A      1.965266  
     232A      1.988389   233A      2.031384   234A      2.070557  
     235A      2.091597   236A      2.101306   237A      2.103303  
     238A      2.119948   239A      2.143473   240A      2.157057  
     241A      2.159714   242A      2.163529   243A      2.190555  
     244A      2.194102   245A      2.195286   246A      2.200533  
     247A      2.202434   248A      2.227761   249A      2.235445  
     250A      2.241961   251A      2.250054   252A      2.310419  
     253A      2.313481   254A      2.322116   255A      2.356071  
     256A      2.389905   257A      2.419916   258A      2.431522  
     259A      2.435818   260A      2.438619   261A      2.439343  
     262A      2.473049   263A      2.488946   264A      2.498932  
     265A      2.519918   266A      2.522582   267A      2.526017  
     268A      2.546759   269A      2.569318   270A      2.585192  
     271A      2.593285   272A      2.606370   273A      2.626595  
     274A      2.665321   275A      2.675454   276A      2.687043  
     277A      2.714725   278A      2.718186   279A      2.719169  
     280A      2.726929   281A      2.768271   282A      2.844031  
     283A      2.865786   284A      2.906714   285A      2.939406  
     286A      2.948023   287A      2.956178   288A      2.973818  
     289A      3.002124   290A      3.018102   291A      3.032616  
     292A      3.058687   293A      3.066679   294A      3.095340  
     295A      3.116064   296A      3.222379   297A      3.246169  
     298A      3.256074   299A      3.285163   300A      3.290117  
     301A      3.322304   302A      3.338313   303A      3.341340  
     304A      3.348967   305A      3.351739   306A      3.366388  
     307A      3.413166   308A      3.413752   309A      3.471543  
     310A      3.502321   311A      3.515024   312A      3.521760  
     313A      3.591344   314A      3.604902   315A      3.606594  
     316A      3.627931   317A      3.700764   318A      3.819714  
     319A      3.830968   320A      3.941352   321A      3.969549  
     322A      3.977566   323A      4.013797   324A      4.195769  
     325A      4.244465   326A      4.253978   327A      4.442866  
     328A      4.547553   329A      4.579597   330A      4.868059  
     331A      4.976605   332A      5.058502   333A      5.262228  
     334A      5.317249   335A      5.631132   336A      5.691701  
     337A      5.827602   338A      5.953047   339A      6.284486  
     340A      6.307220   341A      6.454167   342A      6.631533  
     343A     18.126041   344A     18.208451   345A     19.019136  
     346A     19.343814   347A     25.287492   348A     25.375059  

    Final Occupation by Irrep:
              A 
    DOCC [    21 ]

  @DF-RHF Final Energy:  -262.63996045561453

   => Energetics <=

    Nuclear Repulsion Energy =            212.5517311104853491
    One-Electron Energy =                -775.4594575897729101
    Two-Electron Energy =                 300.2677660236730617
    Total Energy =                       -262.6399604556145277

Computation Completed


Properties will be evaluated at   0.000000,   0.000000,   0.000000 [a0]

Properties computed using the SCF density matrix

  Nuclear Dipole Moment: [e a0]
     X:    55.0814      Y:    41.1737      Z:    17.9034

  Electronic Dipole Moment: [e a0]
     X:   -55.0815      Y:   -41.1737      Z:   -17.9034

  Dipole Moment: [e a0]
     X:    -0.0000      Y:     0.0000      Z:    -0.0000     Total:     0.0000

  Dipole Moment: [D]
     X:    -0.0001      Y:     0.0000      Z:    -0.0001     Total:     0.0001


*** tstop() called on atl1-1-01-015-9-r.pace.gatech.edu at Mon Nov 29 16:11:06 2021
Module time:
	user time   =      16.94 seconds =       0.28 minutes
	system time =       0.55 seconds =       0.01 minutes
	total time  =          9 seconds =       0.15 minutes
Total time:
	user time   =      45.98 seconds =       0.77 minutes
	system time =       1.69 seconds =       0.03 minutes
	total time  =         25 seconds =       0.42 minutes

  //>>>>>>>>>>>>>>>>>>>>>>>>>>>>>>>>>>>//
  //            Monomer B HF           //
  //<<<<<<<<<<<<<<<<<<<<<<<<<<<<<<<<<<<//


*** tstart() called on atl1-1-01-015-9-r.pace.gatech.edu
*** at Mon Nov 29 16:11:06 2021

   => Loading Basis Set <=

    Name: AUG-CC-PVDZ
    Role: ORBITAL
    Keyword: BASIS
    atoms 1-2, 11-12  entry N          line   218 file /storage/home/hhive1/csargent30/data/miniconda3/envs/psi4/share/psi4/basis/aug-cc-pvdz.gbs 
    atoms 3-6, 13-16  entry H          line    40 file /storage/home/hhive1/csargent30/data/miniconda3/envs/psi4/share/psi4/basis/aug-cc-pvdz.gbs 
    atoms 7-10, 17-20 entry C          line   182 file /storage/home/hhive1/csargent30/data/miniconda3/envs/psi4/share/psi4/basis/aug-cc-pvdz.gbs 


         ---------------------------------------------------------
                                   SCF
               by Justin Turney, Rob Parrish, Andy Simmonett
                          and Daniel G. A. Smith
                              RHF Reference
                        2 Threads,   6675 MiB Core
         ---------------------------------------------------------

  ==> Geometry <==

    Molecular point group: c1
    Full point group: C1

    Geometry (in Bohr), charge = 0, multiplicity = 1:

       Center              X                  Y                   Z               Mass       
    ------------   -----------------  -----------------  -----------------  -----------------
      Gh(N)          -1.330847580000     0.980326580000     0.426270370000    14.003074004430
      Gh(N)           3.953773330000     0.980326580000     0.426270370000    14.003074004430
      Gh(H)           3.567136740000     4.352185690000    -0.942309730000     1.007825032230
      Gh(H)          -0.944210980000     4.352185690000    -0.942309730000     1.007825032230
      Gh(H)          -0.944210980000    -2.391532530000     1.794850470000     1.007825032230
      Gh(H)           3.567136740000    -2.391532530000     1.794850470000     1.007825032230
      Gh(C)           2.622925760000     2.940979740000    -0.426270370000    12.000000000000
      Gh(C)           0.000000000000     2.940979740000    -0.426270370000    12.000000000000
      Gh(C)           0.000000000000    -0.980326580000     1.278811120000    12.000000000000
      Gh(C)           2.622925760000    -0.980326580000     1.278811120000    12.000000000000
         N          -18.953299590000   -10.074949200000     0.426270370000    14.003074004430
         N          -13.668678680000   -10.074949200000     0.426270370000    14.003074004430
         H          -14.055315270000    -6.703090090000    -0.942309730000     1.007825032230
         H          -18.566662990000    -6.703090090000    -0.942309730000     1.007825032230
         H          -18.566662990000   -13.446808310000     1.794850470000     1.007825032230
         H          -14.055315270000   -13.446808310000     1.794850470000     1.007825032230
         C          -14.999526250000    -8.114296040000    -0.426270370000    12.000000000000
         C          -17.622452010000    -8.114296040000    -0.426270370000    12.000000000000
         C          -17.622452010000   -12.035602360000     1.278811120000    12.000000000000
         C          -14.999526250000   -12.035602360000     1.278811120000    12.000000000000

  Running in c1 symmetry.

  Rotational constants: A =      0.10074  B =      0.00199  C =      0.00196 [cm^-1]
  Rotational constants: A =   3019.96132  B =     59.66886  C =     58.66148 [MHz]
  Nuclear repulsion =  212.551731110485264

  Charge       = 0
  Multiplicity = 1
  Electrons    = 42
  Nalpha       = 21
  Nbeta        = 21

  ==> Algorithm <==

  SCF Algorithm Type is DF.
  DIIS enabled.
  MOM disabled.
  Fractional occupation disabled.
  Guess Type is SAD.
  Energy threshold   = 1.00e-10
  Density threshold  = 1.00e-10
  Integral threshold = 1.00e-12

  ==> Primary Basis <==

  Basis Set: AUG-CC-PVDZ
    Blend: AUG-CC-PVDZ
    Number of shells: 148
    Number of basis functions: 348
    Number of Cartesian functions: 372
    Spherical Harmonics?: true
    Max angular momentum: 2

   => Loading Basis Set <=

    Name: (AUG-CC-PVDZ AUX)
    Role: JKFIT
    Keyword: DF_BASIS_SCF
    atoms 1-2, 11-12  entry N          line   212 file /storage/home/hhive1/csargent30/data/miniconda3/envs/psi4/share/psi4/basis/aug-cc-pvdz-jkfit.gbs 
    atoms 3-6, 13-16  entry H          line    70 file /storage/home/hhive1/csargent30/data/miniconda3/envs/psi4/share/psi4/basis/aug-cc-pvdz-jkfit.gbs 
    atoms 7-10, 17-20 entry C          line   154 file /storage/home/hhive1/csargent30/data/miniconda3/envs/psi4/share/psi4/basis/aug-cc-pvdz-jkfit.gbs 

  ==> Integral Setup <==

  ==> DiskDFJK: Density-Fitted J/K Matrices <==

    J tasked:                  Yes
    K tasked:                  Yes
    wK tasked:                  No
    OpenMP threads:              2
    Integrals threads:           2
    Memory [MiB]:             5006
    Algorithm:                Core
    Integral Cache:           LOAD
    Schwarz Cutoff:          1E-12
    Fitting Condition:       1E-10

   => Auxiliary Basis Set <=

  Basis Set: (AUG-CC-PVDZ AUX)
    Blend: AUG-CC-PVDZ-JKFIT
    Number of shells: 432
    Number of basis functions: 1288
    Number of Cartesian functions: 1492
    Spherical Harmonics?: true
    Max angular momentum: 3

  Minimum eigenvalue in the overlap matrix is 8.9212491322E-06.
  Reciprocal condition number of the overlap matrix is 6.9567512291E-07.
    Using symmetric orthogonalization.

  ==> Pre-Iterations <==

  SCF Guess: Superposition of Atomic Densities via on-the-fly atomic UHF (no occupation information).

   -------------------------
    Irrep   Nso     Nmo    
   -------------------------
     A        348     348 
   -------------------------
    Total     348     348
   -------------------------

  ==> Iterations <==

                           Total Energy        Delta E     RMS |[F,P]|

   @DF-RHF iter SAD:  -262.32523130388665   -2.62325e+02   0.00000e+00 
   @DF-RHF iter   1:  -262.53942283032063   -2.14192e-01   1.11987e-03 DIIS
   @DF-RHF iter   2:  -262.62880385440263   -8.93810e-02   4.10668e-04 DIIS
   @DF-RHF iter   3:  -262.63863854700071   -9.83469e-03   1.28246e-04 DIIS
   @DF-RHF iter   4:  -262.63986327704202   -1.22473e-03   3.77602e-05 DIIS
   @DF-RHF iter   5:  -262.63995287781756   -8.96008e-05   7.55582e-06 DIIS
   @DF-RHF iter   6:  -262.63995942838153   -6.55056e-06   2.45271e-06 DIIS
   @DF-RHF iter   7:  -262.63996038081029   -9.52429e-07   6.40142e-07 DIIS
   @DF-RHF iter   8:  -262.63996045470265   -7.38924e-08   9.91732e-08 DIIS
   @DF-RHF iter   9:  -262.63996045668836   -1.98571e-09   1.88302e-08 DIIS
   @DF-RHF iter  10:  -262.63996045675958   -7.12248e-11   3.25915e-09 DIIS
   @DF-RHF iter  11:  -262.63996045676146   -1.87583e-12   9.94690e-10 DIIS
   @DF-RHF iter  12:  -262.63996045676134    1.13687e-13   4.25868e-10 DIIS
   @DF-RHF iter  13:  -262.63996045676095    3.97904e-13   7.27684e-11 DIIS
  Energy and wave function converged.


  ==> Post-Iterations <==

    Orbital Energies [Eh]
    ---------------------

    Doubly Occupied:                                                      

       1A    -15.598073     2A    -15.598054     3A    -11.274235  
       4A    -11.274189     5A    -11.272973     6A    -11.272963  
       7A     -1.313347     8A     -1.224176     9A     -1.076803  
      10A     -0.922663    11A     -0.919283    12A     -0.760637  
      13A     -0.738404    14A     -0.706214    15A     -0.647688  
      16A     -0.580712    17A     -0.574370    18A     -0.497113  
      19A     -0.434288    20A     -0.415855    21A     -0.359924  

    Virtual:                                                              

      22A      0.021744    23A      0.032927    24A      0.038489  
      25A      0.039791    26A      0.043032    27A      0.051811  
      28A      0.059901    29A      0.063648    30A      0.067272  
      31A      0.080213    32A      0.085225    33A      0.099062  
      34A      0.099785    35A      0.104959    36A      0.108080  
      37A      0.110242    38A      0.114307    39A      0.116218  
      40A      0.120208    41A      0.123079    42A      0.125329  
      43A      0.127486    44A      0.130371    45A      0.131711  
      46A      0.132677    47A      0.142946    48A      0.153103  
      49A      0.153279    50A      0.159061    51A      0.159507  
      52A      0.162299    53A      0.165652    54A      0.171649  
      55A      0.181836    56A      0.183106    57A      0.187554  
      58A      0.200003    59A      0.203897    60A      0.205462  
      61A      0.206999    62A      0.216786    63A      0.224699  
      64A      0.235084    65A      0.243826    66A      0.251060  
      67A      0.256194    68A      0.267044    69A      0.271682  
      70A      0.280380    71A      0.288179    72A      0.294762  
      73A      0.299178    74A      0.303166    75A      0.317576  
      76A      0.320617    77A      0.324872    78A      0.330546  
      79A      0.334284    80A      0.347582    81A      0.357873  
      82A      0.358836    83A      0.366050    84A      0.383834  
      85A      0.384890    86A      0.386539    87A      0.399425  
      88A      0.403671    89A      0.410314    90A      0.423533  
      91A      0.425802    92A      0.428530    93A      0.434052  
      94A      0.438609    95A      0.443128    96A      0.453496  
      97A      0.461583    98A      0.462573    99A      0.471498  
     100A      0.477817   101A      0.481745   102A      0.492514  
     103A      0.505946   104A      0.508953   105A      0.515656  
     106A      0.523793   107A      0.526134   108A      0.532756  
     109A      0.536495   110A      0.554618   111A      0.559451  
     112A      0.562009   113A      0.565205   114A      0.571501  
     115A      0.583875   116A      0.587845   117A      0.594139  
     118A      0.594687   119A      0.596727   120A      0.608985  
     121A      0.616851   122A      0.621001   123A      0.636638  
     124A      0.644634   125A      0.645412   126A      0.649708  
     127A      0.651925   128A      0.680718   129A      0.685002  
     130A      0.685859   131A      0.687960   132A      0.690133  
     133A      0.693790   134A      0.696551   135A      0.706271  
     136A      0.721473   137A      0.729799   138A      0.747285  
     139A      0.750731   140A      0.755197   141A      0.767165  
     142A      0.776147   143A      0.781577   144A      0.794154  
     145A      0.800533   146A      0.802867   147A      0.812492  
     148A      0.815049   149A      0.820728   150A      0.825140  
     151A      0.832245   152A      0.847978   153A      0.848454  
     154A      0.850778   155A      0.872211   156A      0.880914  
     157A      0.886652   158A      0.888595   159A      0.894799  
     160A      0.906653   161A      0.929185   162A      0.929757  
     163A      0.940974   164A      0.948620   165A      0.950650  
     166A      0.971099   167A      0.977220   168A      0.987223  
     169A      0.998068   170A      1.000415   171A      1.013030  
     172A      1.032958   173A      1.035310   174A      1.047361  
     175A      1.051239   176A      1.077267   177A      1.089411  
     178A      1.090651   179A      1.100988   180A      1.122746  
     181A      1.124547   182A      1.132083   183A      1.135238  
     184A      1.141243   185A      1.159074   186A      1.168970  
     187A      1.171751   188A      1.174059   189A      1.193266  
     190A      1.194179   191A      1.200974   192A      1.223034  
     193A      1.235620   194A      1.239144   195A      1.251311  
     196A      1.308296   197A      1.310805   198A      1.318645  
     199A      1.327196   200A      1.330089   201A      1.331487  
     202A      1.347373   203A      1.390339   204A      1.414345  
     205A      1.448728   206A      1.452973   207A      1.455722  
     208A      1.479503   209A      1.486559   210A      1.487640  
     211A      1.489181   212A      1.500534   213A      1.503706  
     214A      1.519196   215A      1.572745   216A      1.574655  
     217A      1.588503   218A      1.636286   219A      1.640896  
     220A      1.651277   221A      1.660216   222A      1.678329  
     223A      1.698430   224A      1.717175   225A      1.746623  
     226A      1.755135   227A      1.785151   228A      1.815821  
     229A      1.893419   230A      1.916325   231A      1.965266  
     232A      1.988389   233A      2.031384   234A      2.070557  
     235A      2.091597   236A      2.101306   237A      2.103303  
     238A      2.119948   239A      2.143473   240A      2.157057  
     241A      2.159714   242A      2.163529   243A      2.190555  
     244A      2.194102   245A      2.195286   246A      2.200533  
     247A      2.202434   248A      2.227761   249A      2.235445  
     250A      2.241961   251A      2.250054   252A      2.310419  
     253A      2.313481   254A      2.322116   255A      2.356071  
     256A      2.389905   257A      2.419916   258A      2.431522  
     259A      2.435818   260A      2.438619   261A      2.439343  
     262A      2.473049   263A      2.488946   264A      2.498932  
     265A      2.519918   266A      2.522582   267A      2.526017  
     268A      2.546759   269A      2.569318   270A      2.585192  
     271A      2.593285   272A      2.606370   273A      2.626595  
     274A      2.665321   275A      2.675454   276A      2.687043  
     277A      2.714725   278A      2.718186   279A      2.719169  
     280A      2.726929   281A      2.768271   282A      2.844031  
     283A      2.865786   284A      2.906714   285A      2.939406  
     286A      2.948023   287A      2.956178   288A      2.973818  
     289A      3.002124   290A      3.018102   291A      3.032616  
     292A      3.058687   293A      3.066679   294A      3.095340  
     295A      3.116064   296A      3.222379   297A      3.246169  
     298A      3.256074   299A      3.285163   300A      3.290117  
     301A      3.322304   302A      3.338313   303A      3.341340  
     304A      3.348967   305A      3.351739   306A      3.366388  
     307A      3.413166   308A      3.413752   309A      3.471543  
     310A      3.502321   311A      3.515024   312A      3.521760  
     313A      3.591344   314A      3.604902   315A      3.606594  
     316A      3.627931   317A      3.700764   318A      3.819714  
     319A      3.830968   320A      3.941352   321A      3.969549  
     322A      3.977566   323A      4.013797   324A      4.195769  
     325A      4.244465   326A      4.253978   327A      4.442866  
     328A      4.547553   329A      4.579597   330A      4.868059  
     331A      4.976605   332A      5.058502   333A      5.262228  
     334A      5.317249   335A      5.631132   336A      5.691701  
     337A      5.827602   338A      5.953047   339A      6.284486  
     340A      6.307220   341A      6.454167   342A      6.631533  
     343A     18.126041   344A     18.208451   345A     19.019136  
     346A     19.343814   347A     25.287492   348A     25.375059  

    Final Occupation by Irrep:
              A 
    DOCC [    21 ]

  @DF-RHF Final Energy:  -262.63996045676095

   => Energetics <=

    Nuclear Repulsion Energy =            212.5517311104852638
    One-Electron Energy =                -775.4594575896181823
    Two-Electron Energy =                 300.2677660223719158
    Total Energy =                       -262.6399604567609458

Computation Completed


Properties will be evaluated at   0.000000,   0.000000,   0.000000 [a0]

Properties computed using the SCF density matrix

  Nuclear Dipole Moment: [e a0]
     X:  -685.0615      Y:  -423.1479      Z:    17.9034

  Electronic Dipole Moment: [e a0]
     X:   685.0616      Y:   423.1479      Z:   -17.9033

  Dipole Moment: [e a0]
     X:     0.0000      Y:    -0.0000      Z:     0.0000     Total:     0.0000

  Dipole Moment: [D]
     X:     0.0001      Y:    -0.0000      Z:     0.0001     Total:     0.0001


*** tstop() called on atl1-1-01-015-9-r.pace.gatech.edu at Mon Nov 29 16:11:16 2021
Module time:
	user time   =      16.95 seconds =       0.28 minutes
	system time =       0.53 seconds =       0.01 minutes
	total time  =         10 seconds =       0.17 minutes
Total time:
	user time   =      62.94 seconds =       1.05 minutes
	system time =       2.22 seconds =       0.04 minutes
	total time  =         35 seconds =       0.58 minutes
  Constructing Basis Sets for SAPT...

   => Loading Basis Set <=

    Name: (AUG-CC-PVDZ AUX)
    Role: RIFIT
    Keyword: DF_BASIS_SAPT
    atoms 1-2, 11-12  entry N          line   158 file /storage/home/hhive1/csargent30/data/miniconda3/envs/psi4/share/psi4/basis/aug-cc-pvdz-ri.gbs 
    atoms 3-6, 13-16  entry H          line    30 file /storage/home/hhive1/csargent30/data/miniconda3/envs/psi4/share/psi4/basis/aug-cc-pvdz-ri.gbs 
    atoms 7-10, 17-20 entry C          line   112 file /storage/home/hhive1/csargent30/data/miniconda3/envs/psi4/share/psi4/basis/aug-cc-pvdz-ri.gbs 


  //>>>>>>>>>>>>>>>>>>>>>>>>>>>>>>>>>>>//
  //               SAPT0               //
  //<<<<<<<<<<<<<<<<<<<<<<<<<<<<<<<<<<<//


*** tstart() called on atl1-1-01-015-9-r.pace.gatech.edu
*** at Mon Nov 29 16:11:16 2021

        SAPT0  
    Ed Hohenstein
     6 June 2009

      Orbital Information
  --------------------------
    NSO        =       348
    NMO        =       348
    NRI        =      1048
    NOCC A     =        21
    NOCC B     =        21
    FOCC A     =         6
    FOCC B     =         6
    NVIR A     =       327
    NVIR B     =       327

    Elst10,r            =    -0.000078350554 [Eh]
    Exch10              =     0.000000001282 [Eh]
    Exch10 (S^2)        =     0.000000001282 [Eh]

    Iter     Energy [mEh]          dE [mEh]         Residual      Time [s]
       1      -0.00039425       0.000394252       0.213463817             0
       2      -0.00036639      -0.000027859       0.051916166             1
       3      -0.00041374       0.000047348       0.015939239             1
       4      -0.00041463       0.000000891       0.010428183             1
       5      -0.00041283      -0.000001798       0.003987457             2
       6      -0.00041273      -0.000000103       0.001383702             2
       7      -0.00041290       0.000000168       0.000591574             2
       8      -0.00041297       0.000000067       0.000171740             3
       9      -0.00041295      -0.000000016       0.000072599             3
      10      -0.00041294      -0.000000012       0.000030083             3
      11      -0.00041294       0.000000003       0.000017035             4
      12      -0.00041294       0.000000002       0.000004321             4
      13      -0.00041294      -0.000000001       0.000001220             5
      14      -0.00041294       0.000000000       0.000000402             5

    CHF Iterations converged


    Iter     Energy [mEh]          dE [mEh]         Residual      Time [s]
       1      -0.00039425       0.000394252       0.213463819             0
       2      -0.00036639      -0.000027859       0.051916167             1
       3      -0.00041374       0.000047348       0.015939239             1
       4      -0.00041463       0.000000891       0.010428183             1
       5      -0.00041283      -0.000001798       0.003987457             2
       6      -0.00041273      -0.000000103       0.001383702             2
       7      -0.00041290       0.000000168       0.000591574             2
       8      -0.00041297       0.000000067       0.000171740             3
       9      -0.00041295      -0.000000016       0.000072599             3
      10      -0.00041294      -0.000000012       0.000030083             4
      11      -0.00041294       0.000000003       0.000017035             4
      12      -0.00041294       0.000000002       0.000004321             4
      13      -0.00041294      -0.000000001       0.000001220             5
      14      -0.00041294       0.000000000       0.000000402             5

    CHF Iterations converged

    Ind20,r (A<-B)      =    -0.000000412942 [Eh]
    Ind20,r (B<-A)      =    -0.000000412942 [Eh]
    Ind20,r             =    -0.000000825885 [Eh]
    Exch-Ind20,r (A<-B) =     0.000000004935 [Eh]
    Exch-Ind20,r (B<-A) =     0.000000004935 [Eh]
    Exch-Ind20,r        =     0.000000009871 [Eh]
    Disp20              =    -0.000029360955 [Eh]
    Disp20 (SS)         =    -0.000014680478 [Eh]
    Disp20 (OS)         =    -0.000014680478 [Eh]
    Exch-Disp20         =     0.000000001301 [Eh]
    Exch-Disp20 (SS)    =     0.000000001132 [Eh]
    Exch-Disp20 (OS)    =     0.000000000169 [Eh]

    SAPT Results 
  --------------------------------------------------------------------------------------------------------
    Electrostatics                 -0.07835055 [mEh]      -0.04916571 [kcal/mol]      -0.20570935 [kJ/mol]
      Elst10,r                     -0.07835055 [mEh]      -0.04916571 [kcal/mol]      -0.20570935 [kJ/mol]

    Exchange                        0.00000128 [mEh]       0.00000080 [kcal/mol]       0.00000337 [kJ/mol]
      Exch10                        0.00000128 [mEh]       0.00000080 [kcal/mol]       0.00000337 [kJ/mol]
      Exch10(S^2)                   0.00000128 [mEh]       0.00000080 [kcal/mol]       0.00000337 [kJ/mol]

    Induction                      -0.00080553 [mEh]      -0.00050548 [kcal/mol]      -0.00211493 [kJ/mol]
      Ind20,r                      -0.00082588 [mEh]      -0.00051825 [kcal/mol]      -0.00216836 [kJ/mol]
      Exch-Ind20,r                  0.00000987 [mEh]       0.00000619 [kcal/mol]       0.00002592 [kJ/mol]
      delta HF,r (2)                0.00001048 [mEh]       0.00000658 [kcal/mol]       0.00002752 [kJ/mol]

    Dispersion                     -0.02935965 [mEh]      -0.01842346 [kcal/mol]      -0.07708376 [kJ/mol]
      Disp20                       -0.02936096 [mEh]      -0.01842428 [kcal/mol]      -0.07708718 [kJ/mol]
      Exch-Disp20                   0.00000130 [mEh]       0.00000082 [kcal/mol]       0.00000341 [kJ/mol]
      Disp20 (SS)                  -0.01468048 [mEh]      -0.00921214 [kcal/mol]      -0.03854359 [kJ/mol]
      Disp20 (OS)                  -0.01468048 [mEh]      -0.00921214 [kcal/mol]      -0.03854359 [kJ/mol]
      Exch-Disp20 (SS)              0.00000113 [mEh]       0.00000071 [kcal/mol]       0.00000297 [kJ/mol]
      Exch-Disp20 (OS)              0.00000017 [mEh]       0.00000011 [kcal/mol]       0.00000044 [kJ/mol]

  Total HF                         -0.07915480 [mEh]      -0.04967039 [kcal/mol]      -0.20782091 [kJ/mol]
  Total SAPT0                      -0.10851446 [mEh]      -0.06809385 [kcal/mol]      -0.28490467 [kJ/mol]

  Special recipe for scaled SAPT0 (see Manual):
    Electrostatics sSAPT0          -0.07835055 [mEh]      -0.04916571 [kcal/mol]      -0.20570935 [kJ/mol]
    Exchange sSAPT0                 0.00000128 [mEh]       0.00000080 [kcal/mol]       0.00000337 [kJ/mol]
    Induction sSAPT0               -0.00080553 [mEh]      -0.00050548 [kcal/mol]      -0.00211493 [kJ/mol]
    Dispersion sSAPT0              -0.02935965 [mEh]      -0.01842346 [kcal/mol]      -0.07708376 [kJ/mol]
  Total sSAPT0                     -0.10851446 [mEh]      -0.06809385 [kcal/mol]      -0.28490467 [kJ/mol]
  --------------------------------------------------------------------------------------------------------

*** tstop() called on atl1-1-01-015-9-r.pace.gatech.edu at Mon Nov 29 16:11:43 2021
Module time:
	user time   =      40.34 seconds =       0.67 minutes
	system time =      10.05 seconds =       0.17 minutes
	total time  =         27 seconds =       0.45 minutes
Total time:
	user time   =     103.52 seconds =       1.73 minutes
	system time =      12.28 seconds =       0.20 minutes
	total time  =         62 seconds =       1.03 minutes


Warning! sapt0 does not have an associated derived wavefunction.The returned wavefunction is the dimer SCF wavefunction.


    Psi4 stopped on: Monday, 29 November 2021 04:11PM
    Psi4 wall time for execution: 0:01:02.87

*** Psi4 exiting successfully. Buy a developer a beer!
