
    -----------------------------------------------------------------------
          Psi4: An Open-Source Ab Initio Electronic Structure Package
                               Psi4 1.4.1 release

                         Git: Rev {HEAD} cd00f19 


    D. G. A. Smith, L. A. Burns, A. C. Simmonett, R. M. Parrish,
    M. C. Schieber, R. Galvelis, P. Kraus, H. Kruse, R. Di Remigio,
    A. Alenaizan, A. M. James, S. Lehtola, J. P. Misiewicz, M. Scheurer,
    R. A. Shaw, J. B. Schriber, Y. Xie, Z. L. Glick, D. A. Sirianni,
    J. S. O'Brien, J. M. Waldrop, A. Kumar, E. G. Hohenstein,
    B. P. Pritchard, B. R. Brooks, H. F. Schaefer III, A. Yu. Sokolov,
    K. Patkowski, A. E. DePrince III, U. Bozkaya, R. A. King,
    F. A. Evangelista, J. M. Turney, T. D. Crawford, C. D. Sherrill,
    J. Chem. Phys. 152(18) 184108 (2020). https://doi.org/10.1063/5.0006002

                            Additional Code Authors
    E. T. Seidl, C. L. Janssen, E. F. Valeev, M. L. Leininger,
    J. F. Gonthier, R. M. Richard, H. R. McAlexander, M. Saitow, X. Wang,
    P. Verma, and M. H. Lechner

             Previous Authors, Complete List of Code Contributors,
                       and Citations for Specific Modules
    https://github.com/psi4/psi4/blob/master/codemeta.json
    https://github.com/psi4/psi4/graphs/contributors
    http://psicode.org/psi4manual/master/introduction.html#citing-psifour

    -----------------------------------------------------------------------


    Psi4 started on: Monday, 29 November 2021 04:11PM

    Process ID: 23061
    Host:       atl1-1-01-013-11-r.pace.gatech.edu
    PSIDATADIR: /storage/home/hhive1/csargent30/data/miniconda3/envs/psi4/share/psi4
    Memory:     500.0 MiB
    Threads:    2
    
  ==> Input File <==

--------------------------------------------------------------------------
# PSI4 file produced by CrystaLattE

# Generated from:               pyrazine.xyz
# Psithon input for N-mer:      2mer-0+132
# Number of atoms per monomer:  [10, 10]
# Number of replicas:           8
# COM priority:                 3.396498119886e-05
# Minimum COM separations:      16.340 
# Separation priority:          7.405878994407e-05
# Minimum monomer separations:  12.601 
# Cutoff priority:              3.110060344364e-06
# Nuclear repulsion energy:     482.3111984416564

memory 7 GB

molecule Dimer_0_132 {
  N           -1.33084758       0.98032658       0.42627037 
  N            3.95377333       0.98032658       0.42627037 
  H            3.56713674       4.35218569      -0.94230973 
  H           -0.94421098       4.35218569      -0.94230973 
  H           -0.94421098      -2.39153253       1.79485047 
  H            3.56713674      -2.39153253       1.79485047 
  C            2.62292576       2.94097974      -0.42627037 
  C            0.00000000       2.94097974      -0.42627037 
  C            0.00000000      -0.98032658       1.27881112 
  C            2.62292576      -0.98032658       1.27881112 
--
  N          -10.14207358     -26.65786287     -10.15553452 
  N           -4.85745267     -26.65786287     -10.15553452 
  H           -9.75543698     -30.02972198     -11.52411462 
  H           -9.75543698     -23.28600376      -8.78695442 
  H           -5.24408927     -30.02972198     -11.52411462 
  H           -5.24408927     -23.28600376      -8.78695442 
  C           -8.81122601     -28.61851603     -11.00807527 
  C           -8.81122601     -24.69720971      -9.30299378 
  C           -6.18830025     -28.61851603     -11.00807527 
  C           -6.18830025     -24.69720971      -9.30299378 
units = au
no_com
no_reorient
}

set {
  e_convergence 10
  d_convergence 10
  scf_type df
  mp2_type df
  cc_type df
  freeze_core true
}

energy('sapt0/aug-cc-pvdz')

--------------------------------------------------------------------------

  Memory set to   6.519 GiB by Python driver.

Scratch directory: /tmp/

Scratch directory: /tmp/

  //>>>>>>>>>>>>>>>>>>>>>>>>>>>>>>>>>>>//
  //              Dimer HF             //
  //<<<<<<<<<<<<<<<<<<<<<<<<<<<<<<<<<<<//


*** tstart() called on atl1-1-01-013-11-r.pace.gatech.edu
*** at Mon Nov 29 16:11:12 2021

   => Loading Basis Set <=

    Name: AUG-CC-PVDZ
    Role: ORBITAL
    Keyword: BASIS
    atoms 1-2, 11-12  entry N          line   218 file /storage/home/hhive1/csargent30/data/miniconda3/envs/psi4/share/psi4/basis/aug-cc-pvdz.gbs 
    atoms 3-6, 13-16  entry H          line    40 file /storage/home/hhive1/csargent30/data/miniconda3/envs/psi4/share/psi4/basis/aug-cc-pvdz.gbs 
    atoms 7-10, 17-20 entry C          line   182 file /storage/home/hhive1/csargent30/data/miniconda3/envs/psi4/share/psi4/basis/aug-cc-pvdz.gbs 


         ---------------------------------------------------------
                                   SCF
               by Justin Turney, Rob Parrish, Andy Simmonett
                          and Daniel G. A. Smith
                              RHF Reference
                        2 Threads,   6675 MiB Core
         ---------------------------------------------------------

  ==> Geometry <==

    Molecular point group: c1
    Full point group: C1

    Geometry (in Bohr), charge = 0, multiplicity = 1:

       Center              X                  Y                   Z               Mass       
    ------------   -----------------  -----------------  -----------------  -----------------
         N           -1.330847580000     0.980326580000     0.426270370000    14.003074004430
         N            3.953773330000     0.980326580000     0.426270370000    14.003074004430
         H            3.567136740000     4.352185690000    -0.942309730000     1.007825032230
         H           -0.944210980000     4.352185690000    -0.942309730000     1.007825032230
         H           -0.944210980000    -2.391532530000     1.794850470000     1.007825032230
         H            3.567136740000    -2.391532530000     1.794850470000     1.007825032230
         C            2.622925760000     2.940979740000    -0.426270370000    12.000000000000
         C            0.000000000000     2.940979740000    -0.426270370000    12.000000000000
         C            0.000000000000    -0.980326580000     1.278811120000    12.000000000000
         C            2.622925760000    -0.980326580000     1.278811120000    12.000000000000
         N          -10.142073580000   -26.657862870000   -10.155534520000    14.003074004430
         N           -4.857452670000   -26.657862870000   -10.155534520000    14.003074004430
         H           -9.755436980000   -30.029721980000   -11.524114620000     1.007825032230
         H           -9.755436980000   -23.286003760000    -8.786954420000     1.007825032230
         H           -5.244089270000   -30.029721980000   -11.524114620000     1.007825032230
         H           -5.244089270000   -23.286003760000    -8.786954420000     1.007825032230
         C           -8.811226010000   -28.618516030000   -11.008075270000    12.000000000000
         C           -8.811226010000   -24.697209710000    -9.302993780000    12.000000000000
         C           -6.188300250000   -28.618516030000   -11.008075270000    12.000000000000
         C           -6.188300250000   -24.697209710000    -9.302993780000    12.000000000000

  Running in c1 symmetry.

  Rotational constants: A =      0.07553  B =      0.00086  C =      0.00085 [cm^-1]
  Rotational constants: A =   2264.40751  B =     25.65761  C =     25.46328 [MHz]
  Nuclear repulsion =  482.311198468594625

  Charge       = 0
  Multiplicity = 1
  Electrons    = 84
  Nalpha       = 42
  Nbeta        = 42

  ==> Algorithm <==

  SCF Algorithm Type is DF.
  DIIS enabled.
  MOM disabled.
  Fractional occupation disabled.
  Guess Type is SAD.
  Energy threshold   = 1.00e-10
  Density threshold  = 1.00e-10
  Integral threshold = 1.00e-12

  ==> Primary Basis <==

  Basis Set: AUG-CC-PVDZ
    Blend: AUG-CC-PVDZ
    Number of shells: 148
    Number of basis functions: 348
    Number of Cartesian functions: 372
    Spherical Harmonics?: true
    Max angular momentum: 2

   => Loading Basis Set <=

    Name: (AUG-CC-PVDZ AUX)
    Role: JKFIT
    Keyword: DF_BASIS_SCF
    atoms 1-2, 11-12  entry N          line   212 file /storage/home/hhive1/csargent30/data/miniconda3/envs/psi4/share/psi4/basis/aug-cc-pvdz-jkfit.gbs 
    atoms 3-6, 13-16  entry H          line    70 file /storage/home/hhive1/csargent30/data/miniconda3/envs/psi4/share/psi4/basis/aug-cc-pvdz-jkfit.gbs 
    atoms 7-10, 17-20 entry C          line   154 file /storage/home/hhive1/csargent30/data/miniconda3/envs/psi4/share/psi4/basis/aug-cc-pvdz-jkfit.gbs 

  ==> Integral Setup <==

  ==> DiskDFJK: Density-Fitted J/K Matrices <==

    J tasked:                  Yes
    K tasked:                  Yes
    wK tasked:                  No
    OpenMP threads:              2
    Integrals threads:           2
    Memory [MiB]:             5006
    Algorithm:                Core
    Integral Cache:           SAVE
    Schwarz Cutoff:          1E-12
    Fitting Condition:       1E-10

   => Auxiliary Basis Set <=

  Basis Set: (AUG-CC-PVDZ AUX)
    Blend: AUG-CC-PVDZ-JKFIT
    Number of shells: 432
    Number of basis functions: 1288
    Number of Cartesian functions: 1492
    Spherical Harmonics?: true
    Max angular momentum: 3

  Minimum eigenvalue in the overlap matrix is 9.4670358434E-06.
  Reciprocal condition number of the overlap matrix is 7.3839722645E-07.
    Using symmetric orthogonalization.

  ==> Pre-Iterations <==

  SCF Guess: Superposition of Atomic Densities via on-the-fly atomic UHF (no occupation information).

   -------------------------
    Irrep   Nso     Nmo    
   -------------------------
     A        348     348 
   -------------------------
    Total     348     348
   -------------------------

  ==> Iterations <==

                           Total Energy        Delta E     RMS |[F,P]|

   @DF-RHF iter SAD:  -524.65046251922172   -5.24650e+02   0.00000e+00 
   @DF-RHF iter   1:  -525.07881189081115   -4.28349e-01   1.58372e-03 DIIS
   @DF-RHF iter   2:  -525.25757288837383   -1.78761e-01   5.80776e-04 DIIS
   @DF-RHF iter   3:  -525.27724239671375   -1.96695e-02   1.81374e-04 DIIS
   @DF-RHF iter   4:  -525.27969196651566   -2.44957e-03   5.34022e-05 DIIS
   @DF-RHF iter   5:  -525.27987117761393   -1.79211e-04   1.06853e-05 DIIS
   @DF-RHF iter   6:  -525.27988427854928   -1.31009e-05   3.46870e-06 DIIS
   @DF-RHF iter   7:  -525.27988618343238   -1.90488e-06   9.05530e-07 DIIS
   @DF-RHF iter   8:  -525.27988633118480   -1.47752e-07   1.43529e-07 DIIS
   @DF-RHF iter   9:  -525.27988633512837   -3.94357e-09   4.59583e-08 DIIS
   @DF-RHF iter  10:  -525.27988633532584   -1.97474e-10   2.07166e-08 DIIS
   @DF-RHF iter  11:  -525.27988633536779   -4.19504e-11   2.77036e-09 DIIS
   @DF-RHF iter  12:  -525.27988633536927   -1.47793e-12   8.84265e-10 DIIS
   @DF-RHF iter  13:  -525.27988633537075   -1.47793e-12   3.67003e-10 DIIS
   @DF-RHF iter  14:  -525.27988633536893    1.81899e-12   7.55603e-11 DIIS
  Energy and wave function converged.


  ==> Post-Iterations <==

    Orbital Energies [Eh]
    ---------------------

    Doubly Occupied:                                                      

       1A    -15.598348     2A    -15.598317     3A    -15.598183  
       4A    -15.598159     5A    -11.274511     6A    -11.274464  
       7A    -11.274349     8A    -11.274303     9A    -11.273252  
      10A    -11.273235    11A    -11.273086    12A    -11.273077  
      13A     -1.313617    14A     -1.313455    15A     -1.224446  
      16A     -1.224284    17A     -1.077074    18A     -1.076913  
      19A     -0.922933    20A     -0.922772    21A     -0.919554  
      22A     -0.919392    23A     -0.760908    24A     -0.760746  
      25A     -0.738673    26A     -0.738512    27A     -0.706485  
      28A     -0.706323    29A     -0.647959    30A     -0.647797  
      31A     -0.580982    32A     -0.580820    33A     -0.574640  
      34A     -0.574478    35A     -0.497382    36A     -0.497220  
      37A     -0.434558    38A     -0.434396    39A     -0.416125  
      40A     -0.415964    41A     -0.360196    42A     -0.360034  

    Virtual:                                                              

      43A      0.034082    44A      0.034478    45A      0.040169  
      46A      0.040874    47A      0.048064    48A      0.048350  
      49A      0.058217    50A      0.058596    51A      0.066840  
      52A      0.067004    53A      0.099147    54A      0.099310  
      55A      0.100673    56A      0.100836    57A      0.113924  
      58A      0.114094    59A      0.114680    60A      0.114846  
      61A      0.123333    62A      0.123805    63A      0.125058  
      64A      0.125220    65A      0.128393    66A      0.128545  
      67A      0.132612    68A      0.132777    69A      0.156673  
      70A      0.158612    71A      0.160311    72A      0.160868  
      73A      0.161239    74A      0.162003    75A      0.163689  
      76A      0.164187    77A      0.174936    78A      0.175078  
      79A      0.186644    80A      0.186811    81A      0.203634  
      82A      0.203798    83A      0.212275    84A      0.212436  
      85A      0.250247    86A      0.250412    87A      0.267491  
      88A      0.267650    89A      0.277786    90A      0.277951  
      91A      0.287542    92A      0.287707    93A      0.292911  
      94A      0.293083    95A      0.295264    96A      0.295938  
      97A      0.314564    98A      0.314724    99A      0.320187  
     100A      0.320348   101A      0.354953   102A      0.355533  
     103A      0.357634   104A      0.357799   105A      0.364391  
     106A      0.364552   107A      0.382298   108A      0.382482  
     109A      0.398431   110A      0.398974   111A      0.409474  
     112A      0.409955   113A      0.425178   114A      0.425337  
     115A      0.433648   116A      0.433813   117A      0.436368  
     118A      0.437773   119A      0.451824   120A      0.451992  
     121A      0.471208   122A      0.471385   123A      0.491867  
     124A      0.492029   125A      0.504588   126A      0.504750  
     127A      0.514639   128A      0.514806   129A      0.524265  
     130A      0.524446   131A      0.528299   132A      0.528681  
     133A      0.554304   134A      0.554472   135A      0.570247  
     136A      0.570448   137A      0.587263   138A      0.587427  
     139A      0.591236   140A      0.591399   141A      0.593530  
     142A      0.593690   143A      0.608659   144A      0.608818  
     145A      0.643249   146A      0.643408   147A      0.644032  
     148A      0.644233   149A      0.684865   150A      0.685027  
     151A      0.687484   152A      0.687649   153A      0.689609  
     154A      0.689790   155A      0.689998   156A      0.690406  
     157A      0.694558   158A      0.694722   159A      0.703509  
     160A      0.703794   161A      0.746280   162A      0.746453  
     163A      0.754544   164A      0.754705   165A      0.766696  
     166A      0.766857   167A      0.781137   168A      0.781297  
     169A      0.799543   170A      0.799703   171A      0.802437  
     172A      0.802601   173A      0.818744   174A      0.818912  
     175A      0.830800   176A      0.830963   177A      0.847245  
     178A      0.847405   179A      0.880272   180A      0.880434  
     181A      0.886139   182A      0.886299   183A      0.894410  
     184A      0.894574   185A      0.929002   186A      0.929160  
     187A      0.939194   188A      0.939361   189A      0.948995  
     190A      0.949245   191A      0.996381   192A      0.996544  
     193A      0.998640   194A      0.998801   195A      1.012746  
     196A      1.012908   197A      1.033066   198A      1.033301  
     199A      1.050922   200A      1.051085   201A      1.089112  
     202A      1.089273   203A      1.100176   204A      1.100336  
     205A      1.121786   206A      1.122241   207A      1.123773  
     208A      1.123938   209A      1.134075   210A      1.134273  
     211A      1.158467   212A      1.158639   213A      1.173294  
     214A      1.173456   215A      1.235127   216A      1.235331  
     217A      1.238534   218A      1.238694   219A      1.309398  
     220A      1.309572   221A      1.330876   222A      1.331042  
     223A      1.414005   224A      1.414180   225A      1.451252  
     226A      1.451425   227A      1.485864   228A      1.486033  
     229A      1.487805   230A      1.487967   231A      1.498850  
     232A      1.499193   233A      1.502546   234A      1.502777  
     235A      1.517980   236A      1.518141   237A      1.572414  
     238A      1.572577   239A      1.573861   240A      1.574151  
     241A      1.587473   242A      1.587833   243A      1.635692  
     244A      1.635893   245A      1.640230   246A      1.640399  
     247A      1.647942   248A      1.648128   249A      1.676280  
     250A      1.676443   251A      1.716720   252A      1.716883  
     253A      1.746326   254A      1.746488   255A      1.754832  
     256A      1.754995   257A      1.783459   258A      1.783693  
     259A      1.815455   260A      1.815618   261A      1.893051  
     262A      1.893213   263A      1.915865   264A      1.916029  
     265A      1.964557   266A      1.964719   267A      1.987404  
     268A      1.987566   269A      2.030929   270A      2.031095  
     271A      2.091275   272A      2.091442   273A      2.100758  
     274A      2.100920   275A      2.142683   276A      2.142844  
     277A      2.163084   278A      2.163246   279A      2.190216  
     280A      2.190378   281A      2.193008   282A      2.193221  
     283A      2.200107   284A      2.200272   285A      2.202139  
     286A      2.202300   287A      2.227355   288A      2.227517  
     289A      2.312490   290A      2.312652   291A      2.354942  
     292A      2.355137   293A      2.430687   294A      2.430848  
     295A      2.438706   296A      2.438868   297A      2.519108  
     298A      2.519269   299A      2.522123   300A      2.522285  
     301A      2.584497   302A      2.584659   303A      2.605996  
     304A      2.606158   305A      2.664953   306A      2.665115  
     307A      2.675140   308A      2.675301   309A      2.686106  
     310A      2.686309   311A      2.713703   312A      2.713894  
     313A      2.718320   314A      2.718481   315A      2.843744  
     316A      2.843906   317A      2.865490   318A      2.865652  
     319A      2.938921   320A      2.939093   321A      3.001583  
     322A      3.001748   323A      3.017601   324A      3.017764  
     325A      3.031917   326A      3.032078   327A      3.093864  
     328A      3.094030   329A      3.219846   330A      3.220428  
     331A      3.255708   332A      3.255870   333A      3.284584  
     334A      3.284803   335A      3.365867   336A      3.366034  
     337A      3.413086   338A      3.413269   339A      3.514650  
     340A      3.514811   341A      3.590382   342A      3.590548  
     343A      3.627498   344A      3.627660   345A      3.976963  
     346A      3.977131   347A      4.253214   348A      4.253376  

    Final Occupation by Irrep:
              A 
    DOCC [    42 ]

  @DF-RHF Final Energy:  -525.27988633536893

   => Energetics <=

    Nuclear Repulsion Energy =            482.3111984685946254
    One-Electron Energy =               -1665.3183314647531006
    Two-Electron Energy =                 657.7272466607894330
    Total Energy =                       -525.2798863353689285

Computation Completed


Properties will be evaluated at   0.000000,   0.000000,   0.000000 [a0]

Properties computed using the SCF density matrix

  Nuclear Dipole Moment: [e a0]
     X:  -259.9086      Y: -1078.4565      Z:  -408.6291

  Electronic Dipole Moment: [e a0]
     X:   259.9090      Y:  1078.4574      Z:   408.6286

  Dipole Moment: [e a0]
     X:     0.0004      Y:     0.0008      Z:    -0.0005     Total:     0.0011

  Dipole Moment: [D]
     X:     0.0011      Y:     0.0021      Z:    -0.0013     Total:     0.0027


*** tstop() called on atl1-1-01-013-11-r.pace.gatech.edu at Mon Nov 29 16:11:28 2021
Module time:
	user time   =      28.41 seconds =       0.47 minutes
	system time =       1.06 seconds =       0.02 minutes
	total time  =         16 seconds =       0.27 minutes
Total time:
	user time   =      28.41 seconds =       0.47 minutes
	system time =       1.06 seconds =       0.02 minutes
	total time  =         16 seconds =       0.27 minutes

  //>>>>>>>>>>>>>>>>>>>>>>>>>>>>>>>>>>>//
  //            Monomer A HF           //
  //<<<<<<<<<<<<<<<<<<<<<<<<<<<<<<<<<<<//


*** tstart() called on atl1-1-01-013-11-r.pace.gatech.edu
*** at Mon Nov 29 16:11:28 2021

   => Loading Basis Set <=

    Name: AUG-CC-PVDZ
    Role: ORBITAL
    Keyword: BASIS
    atoms 1-2, 11-12  entry N          line   218 file /storage/home/hhive1/csargent30/data/miniconda3/envs/psi4/share/psi4/basis/aug-cc-pvdz.gbs 
    atoms 3-6, 13-16  entry H          line    40 file /storage/home/hhive1/csargent30/data/miniconda3/envs/psi4/share/psi4/basis/aug-cc-pvdz.gbs 
    atoms 7-10, 17-20 entry C          line   182 file /storage/home/hhive1/csargent30/data/miniconda3/envs/psi4/share/psi4/basis/aug-cc-pvdz.gbs 


         ---------------------------------------------------------
                                   SCF
               by Justin Turney, Rob Parrish, Andy Simmonett
                          and Daniel G. A. Smith
                              RHF Reference
                        2 Threads,   6675 MiB Core
         ---------------------------------------------------------

  ==> Geometry <==

    Molecular point group: c1
    Full point group: C1

    Geometry (in Bohr), charge = 0, multiplicity = 1:

       Center              X                  Y                   Z               Mass       
    ------------   -----------------  -----------------  -----------------  -----------------
         N           -1.330847580000     0.980326580000     0.426270370000    14.003074004430
         N            3.953773330000     0.980326580000     0.426270370000    14.003074004430
         H            3.567136740000     4.352185690000    -0.942309730000     1.007825032230
         H           -0.944210980000     4.352185690000    -0.942309730000     1.007825032230
         H           -0.944210980000    -2.391532530000     1.794850470000     1.007825032230
         H            3.567136740000    -2.391532530000     1.794850470000     1.007825032230
         C            2.622925760000     2.940979740000    -0.426270370000    12.000000000000
         C            0.000000000000     2.940979740000    -0.426270370000    12.000000000000
         C            0.000000000000    -0.980326580000     1.278811120000    12.000000000000
         C            2.622925760000    -0.980326580000     1.278811120000    12.000000000000
      Gh(N)         -10.142073580000   -26.657862870000   -10.155534520000    14.003074004430
      Gh(N)          -4.857452670000   -26.657862870000   -10.155534520000    14.003074004430
      Gh(H)          -9.755436980000   -30.029721980000   -11.524114620000     1.007825032230
      Gh(H)          -9.755436980000   -23.286003760000    -8.786954420000     1.007825032230
      Gh(H)          -5.244089270000   -30.029721980000   -11.524114620000     1.007825032230
      Gh(H)          -5.244089270000   -23.286003760000    -8.786954420000     1.007825032230
      Gh(C)          -8.811226010000   -28.618516030000   -11.008075270000    12.000000000000
      Gh(C)          -8.811226010000   -24.697209710000    -9.302993780000    12.000000000000
      Gh(C)          -6.188300250000   -28.618516030000   -11.008075270000    12.000000000000
      Gh(C)          -6.188300250000   -24.697209710000    -9.302993780000    12.000000000000

  Running in c1 symmetry.

  Rotational constants: A =      0.07553  B =      0.00086  C =      0.00085 [cm^-1]
  Rotational constants: A =   2264.40751  B =     25.65761  C =     25.46328 [MHz]
  Nuclear repulsion =  212.551731110485349

  Charge       = 0
  Multiplicity = 1
  Electrons    = 42
  Nalpha       = 21
  Nbeta        = 21

  ==> Algorithm <==

  SCF Algorithm Type is DF.
  DIIS enabled.
  MOM disabled.
  Fractional occupation disabled.
  Guess Type is SAD.
  Energy threshold   = 1.00e-10
  Density threshold  = 1.00e-10
  Integral threshold = 1.00e-12

  ==> Primary Basis <==

  Basis Set: AUG-CC-PVDZ
    Blend: AUG-CC-PVDZ
    Number of shells: 148
    Number of basis functions: 348
    Number of Cartesian functions: 372
    Spherical Harmonics?: true
    Max angular momentum: 2

   => Loading Basis Set <=

    Name: (AUG-CC-PVDZ AUX)
    Role: JKFIT
    Keyword: DF_BASIS_SCF
    atoms 1-2, 11-12  entry N          line   212 file /storage/home/hhive1/csargent30/data/miniconda3/envs/psi4/share/psi4/basis/aug-cc-pvdz-jkfit.gbs 
    atoms 3-6, 13-16  entry H          line    70 file /storage/home/hhive1/csargent30/data/miniconda3/envs/psi4/share/psi4/basis/aug-cc-pvdz-jkfit.gbs 
    atoms 7-10, 17-20 entry C          line   154 file /storage/home/hhive1/csargent30/data/miniconda3/envs/psi4/share/psi4/basis/aug-cc-pvdz-jkfit.gbs 

  ==> Integral Setup <==

  ==> DiskDFJK: Density-Fitted J/K Matrices <==

    J tasked:                  Yes
    K tasked:                  Yes
    wK tasked:                  No
    OpenMP threads:              2
    Integrals threads:           2
    Memory [MiB]:             5006
    Algorithm:                Core
    Integral Cache:           LOAD
    Schwarz Cutoff:          1E-12
    Fitting Condition:       1E-10

   => Auxiliary Basis Set <=

  Basis Set: (AUG-CC-PVDZ AUX)
    Blend: AUG-CC-PVDZ-JKFIT
    Number of shells: 432
    Number of basis functions: 1288
    Number of Cartesian functions: 1492
    Spherical Harmonics?: true
    Max angular momentum: 3

  Minimum eigenvalue in the overlap matrix is 9.4670358434E-06.
  Reciprocal condition number of the overlap matrix is 7.3839722645E-07.
    Using symmetric orthogonalization.

  ==> Pre-Iterations <==

  SCF Guess: Superposition of Atomic Densities via on-the-fly atomic UHF (no occupation information).

   -------------------------
    Irrep   Nso     Nmo    
   -------------------------
     A        348     348 
   -------------------------
    Total     348     348
   -------------------------

  ==> Iterations <==

                           Total Energy        Delta E     RMS |[F,P]|

   @DF-RHF iter SAD:  -262.32523125905163   -2.62325e+02   0.00000e+00 
   @DF-RHF iter   1:  -262.53940798468761   -2.14177e-01   1.11985e-03 DIIS
   @DF-RHF iter   2:  -262.62878838008953   -8.93804e-02   4.10664e-04 DIIS
   @DF-RHF iter   3:  -262.63862292486721   -9.83454e-03   1.28248e-04 DIIS
   @DF-RHF iter   4:  -262.63984767809723   -1.22475e-03   3.77599e-05 DIIS
   @DF-RHF iter   5:  -262.63993727856177   -8.96005e-05   7.55558e-06 DIIS
   @DF-RHF iter   6:  -262.63994382882237   -6.55026e-06   2.45264e-06 DIIS
   @DF-RHF iter   7:  -262.63994478119605   -9.52374e-07   6.40130e-07 DIIS
   @DF-RHF iter   8:  -262.63994485508402   -7.38880e-08   9.91693e-08 DIIS
   @DF-RHF iter   9:  -262.63994485706951   -1.98548e-09   1.88228e-08 DIIS
   @DF-RHF iter  10:  -262.63994485714056   -7.10543e-11   3.19151e-09 DIIS
   @DF-RHF iter  11:  -262.63994485714278   -2.21689e-12   5.22317e-10 DIIS
   @DF-RHF iter  12:  -262.63994485714261    1.70530e-13   9.54319e-11 DIIS
  Energy and wave function converged.


  ==> Post-Iterations <==

    Orbital Energies [Eh]
    ---------------------

    Doubly Occupied:                                                      

       1A    -15.598072     2A    -15.598053     3A    -11.274239  
       4A    -11.274194     5A    -11.272975     6A    -11.272969  
       7A     -1.313347     8A     -1.224176     9A     -1.076803  
      10A     -0.922662    11A     -0.919282    12A     -0.760637  
      13A     -0.738402    14A     -0.706214    15A     -0.647687  
      16A     -0.580711    17A     -0.574369    18A     -0.497113  
      19A     -0.434288    20A     -0.415855    21A     -0.359924  

    Virtual:                                                              

      22A      0.022242    23A      0.034475    24A      0.039235  
      25A      0.040640    26A      0.041151    27A      0.048387  
      28A      0.058454    29A      0.058801    30A      0.067113  
      31A      0.079498    32A      0.084852    33A      0.099419  
      34A      0.100940    35A      0.103799    36A      0.108331  
      37A      0.108669    38A      0.114201    39A      0.114950  
      40A      0.122312    41A      0.123649    42A      0.125287  
      43A      0.125524    44A      0.128664    45A      0.130760  
      46A      0.132890    47A      0.133955    48A      0.151768  
      49A      0.152834    50A      0.158324    51A      0.159160  
      52A      0.161128    53A      0.161352    54A      0.163929  
      55A      0.175180    56A      0.176554    57A      0.186918  
      58A      0.197643    59A      0.203721    60A      0.203918  
      61A      0.206478    62A      0.212538    63A      0.222209  
      64A      0.233442    65A      0.239255    66A      0.250519  
      67A      0.255038    68A      0.267754    69A      0.270600  
      70A      0.278057    71A      0.287813    72A      0.293207  
      73A      0.295705    74A      0.302205    75A      0.314832  
      76A      0.320432    77A      0.320477    78A      0.327977  
      79A      0.331119    80A      0.343937    81A      0.355447  
      82A      0.357908    83A      0.364661    84A      0.380307  
      85A      0.382589    86A      0.385448    87A      0.398897  
      88A      0.401096    89A      0.409911    90A      0.419084  
      91A      0.424761    92A      0.425458    93A      0.433927  
      94A      0.437240    95A      0.441744    96A      0.452092  
      97A      0.460472    98A      0.460920    99A      0.471484  
     100A      0.475898   101A      0.478644   102A      0.492140  
     103A      0.504861   104A      0.507646   105A      0.514914  
     106A      0.523575   107A      0.524550   108A      0.528679  
     109A      0.535547   110A      0.554578   111A      0.557659  
     112A      0.561325   113A      0.564308   114A      0.570535  
     115A      0.581742   116A      0.587535   117A      0.591507  
     118A      0.593800   119A      0.595819   120A      0.608930  
     121A      0.614955   122A      0.619975   123A      0.636178  
     124A      0.643517   125A      0.644323   126A      0.649165  
     127A      0.651302   128A      0.679222   129A      0.685077  
     130A      0.685184   131A      0.687762   132A      0.689937  
     133A      0.690360   134A      0.694830   135A      0.703837  
     136A      0.719700   137A      0.728207   138A      0.746477  
     139A      0.746694   140A      0.754817   141A      0.766965  
     142A      0.775494   143A      0.781406   144A      0.793442  
     145A      0.799816   146A      0.802710   147A      0.810907  
     148A      0.811790   149A      0.819017   150A      0.824566  
     151A      0.831071   152A      0.847511   153A      0.847877  
     154A      0.849002   155A      0.868418   156A      0.880544  
     157A      0.886410   158A      0.887960   159A      0.894683  
     160A      0.905916   161A      0.928918   162A      0.929282  
     163A      0.939469   164A      0.947504   165A      0.949312  
     166A      0.970592   167A      0.976750   168A      0.986452  
     169A      0.996652   170A      0.998908   171A      1.013015  
     172A      1.032230   173A      1.033374   174A      1.046742  
     175A      1.051194   176A      1.076079   177A      1.089381  
     178A      1.090091   179A      1.100445   180A      1.122200  
     181A      1.124045   182A      1.130484   183A      1.134367  
     184A      1.140079   185A      1.158742   186A      1.168401  
     187A      1.170487   188A      1.173565   189A      1.192027  
     190A      1.193061   191A      1.200289   192A      1.222128  
     193A      1.235419   194A      1.238805   195A      1.250841  
     196A      1.307372   197A      1.309675   198A      1.318077  
     199A      1.326226   200A      1.329425   201A      1.331149  
     202A      1.346623   203A      1.389025   204A      1.414283  
     205A      1.448203   206A      1.451527   207A      1.455273  
     208A      1.478950   209A      1.486138   210A      1.487020  
     211A      1.488075   212A      1.499218   213A      1.502849  
     214A      1.518252   215A      1.572687   216A      1.574197  
     217A      1.587843   218A      1.635984   219A      1.640506  
     220A      1.648222   221A      1.659056   222A      1.676552  
     223A      1.697881   224A      1.716991   225A      1.746598  
     226A      1.755104   227A      1.783765   228A      1.815727  
     229A      1.893323   230A      1.916138   231A      1.964829  
     232A      1.987675   233A      2.031203   234A      2.070041  
     235A      2.091549   236A      2.101029   237A      2.102579  
     238A      2.119257   239A      2.142953   240A      2.156489  
     241A      2.159004   242A      2.163356   243A      2.190489  
     244A      2.193303   245A      2.194674   246A      2.200380  
     247A      2.202411   248A      2.227626   249A      2.234589  
     250A      2.241021   251A      2.249474   252A      2.309828  
     253A      2.312761   254A      2.319365   255A      2.355230  
     256A      2.384620   257A      2.419026   258A      2.430957  
     259A      2.435227   260A      2.437984   261A      2.438977  
     262A      2.472491   263A      2.486538   264A      2.498134  
     265A      2.519379   266A      2.522395   267A      2.524883  
     268A      2.545810   269A      2.568147   270A      2.584766  
     271A      2.592188   272A      2.606266   273A      2.625787  
     274A      2.665224   275A      2.675409   276A      2.686397  
     277A      2.713985   278A      2.716716   279A      2.718592  
     280A      2.726467   281A      2.767750   282A      2.844014  
     283A      2.865761   284A      2.903852   285A      2.939197  
     286A      2.947043   287A      2.955567   288A      2.973157  
     289A      3.001856   290A      3.017872   291A      3.032187  
     292A      3.058146   293A      3.065047   294A      3.094138  
     295A      3.113685   296A      3.220327   297A      3.245544  
     298A      3.255980   299A      3.284882   300A      3.289498  
     301A      3.321777   302A      3.337559   303A      3.340303  
     304A      3.348475   305A      3.351201   306A      3.366141  
     307A      3.412446   308A      3.413369   309A      3.470601  
     310A      3.501802   311A      3.514920   312A      3.521213  
     313A      3.590655   314A      3.604288   315A      3.605496  
     316A      3.627769   317A      3.700334   318A      3.818775  
     319A      3.830537   320A      3.940818   321A      3.968944  
     322A      3.977238   323A      4.011252   324A      4.194608  
     325A      4.242108   326A      4.253485   327A      4.441838  
     328A      4.546678   329A      4.579127   330A      4.867489  
     331A      4.975992   332A      5.057703   333A      5.261562  
     334A      5.316388   335A      5.630050   336A      5.691173  
     337A      5.826997   338A      5.952479   339A      6.283678  
     340A      6.306738   341A      6.453613   342A      6.631047  
     343A     18.125565   344A     18.207827   345A     19.017426  
     346A     19.342848   347A     25.286911   348A     25.374631  

    Final Occupation by Irrep:
              A 
    DOCC [    21 ]

  @DF-RHF Final Energy:  -262.63994485714261

   => Energetics <=

    Nuclear Repulsion Energy =            212.5517311104853491
    One-Electron Energy =                -775.4594097295811252
    Two-Electron Energy =                 300.2677337619531954
    Total Energy =                       -262.6399448571426092

Computation Completed


Properties will be evaluated at   0.000000,   0.000000,   0.000000 [a0]

Properties computed using the SCF density matrix

  Nuclear Dipole Moment: [e a0]
     X:    55.0814      Y:    41.1737      Z:    17.9034

  Electronic Dipole Moment: [e a0]
     X:   -55.0814      Y:   -41.1737      Z:   -17.9034

  Dipole Moment: [e a0]
     X:    -0.0000      Y:    -0.0000      Z:    -0.0000     Total:     0.0000

  Dipole Moment: [D]
     X:    -0.0000      Y:    -0.0000      Z:    -0.0000     Total:     0.0000


*** tstop() called on atl1-1-01-013-11-r.pace.gatech.edu at Mon Nov 29 16:11:38 2021
Module time:
	user time   =      17.52 seconds =       0.29 minutes
	system time =       0.55 seconds =       0.01 minutes
	total time  =         10 seconds =       0.17 minutes
Total time:
	user time   =      45.94 seconds =       0.77 minutes
	system time =       1.61 seconds =       0.03 minutes
	total time  =         26 seconds =       0.43 minutes

  //>>>>>>>>>>>>>>>>>>>>>>>>>>>>>>>>>>>//
  //            Monomer B HF           //
  //<<<<<<<<<<<<<<<<<<<<<<<<<<<<<<<<<<<//


*** tstart() called on atl1-1-01-013-11-r.pace.gatech.edu
*** at Mon Nov 29 16:11:38 2021

   => Loading Basis Set <=

    Name: AUG-CC-PVDZ
    Role: ORBITAL
    Keyword: BASIS
    atoms 1-2, 11-12  entry N          line   218 file /storage/home/hhive1/csargent30/data/miniconda3/envs/psi4/share/psi4/basis/aug-cc-pvdz.gbs 
    atoms 3-6, 13-16  entry H          line    40 file /storage/home/hhive1/csargent30/data/miniconda3/envs/psi4/share/psi4/basis/aug-cc-pvdz.gbs 
    atoms 7-10, 17-20 entry C          line   182 file /storage/home/hhive1/csargent30/data/miniconda3/envs/psi4/share/psi4/basis/aug-cc-pvdz.gbs 


         ---------------------------------------------------------
                                   SCF
               by Justin Turney, Rob Parrish, Andy Simmonett
                          and Daniel G. A. Smith
                              RHF Reference
                        2 Threads,   6675 MiB Core
         ---------------------------------------------------------

  ==> Geometry <==

    Molecular point group: c1
    Full point group: C1

    Geometry (in Bohr), charge = 0, multiplicity = 1:

       Center              X                  Y                   Z               Mass       
    ------------   -----------------  -----------------  -----------------  -----------------
      Gh(N)          -1.330847580000     0.980326580000     0.426270370000    14.003074004430
      Gh(N)           3.953773330000     0.980326580000     0.426270370000    14.003074004430
      Gh(H)           3.567136740000     4.352185690000    -0.942309730000     1.007825032230
      Gh(H)          -0.944210980000     4.352185690000    -0.942309730000     1.007825032230
      Gh(H)          -0.944210980000    -2.391532530000     1.794850470000     1.007825032230
      Gh(H)           3.567136740000    -2.391532530000     1.794850470000     1.007825032230
      Gh(C)           2.622925760000     2.940979740000    -0.426270370000    12.000000000000
      Gh(C)           0.000000000000     2.940979740000    -0.426270370000    12.000000000000
      Gh(C)           0.000000000000    -0.980326580000     1.278811120000    12.000000000000
      Gh(C)           2.622925760000    -0.980326580000     1.278811120000    12.000000000000
         N          -10.142073580000   -26.657862870000   -10.155534520000    14.003074004430
         N           -4.857452670000   -26.657862870000   -10.155534520000    14.003074004430
         H           -9.755436980000   -30.029721980000   -11.524114620000     1.007825032230
         H           -9.755436980000   -23.286003760000    -8.786954420000     1.007825032230
         H           -5.244089270000   -30.029721980000   -11.524114620000     1.007825032230
         H           -5.244089270000   -23.286003760000    -8.786954420000     1.007825032230
         C           -8.811226010000   -28.618516030000   -11.008075270000    12.000000000000
         C           -8.811226010000   -24.697209710000    -9.302993780000    12.000000000000
         C           -6.188300250000   -28.618516030000   -11.008075270000    12.000000000000
         C           -6.188300250000   -24.697209710000    -9.302993780000    12.000000000000

  Running in c1 symmetry.

  Rotational constants: A =      0.07553  B =      0.00086  C =      0.00085 [cm^-1]
  Rotational constants: A =   2264.40751  B =     25.65761  C =     25.46328 [MHz]
  Nuclear repulsion =  212.551731143112960

  Charge       = 0
  Multiplicity = 1
  Electrons    = 42
  Nalpha       = 21
  Nbeta        = 21

  ==> Algorithm <==

  SCF Algorithm Type is DF.
  DIIS enabled.
  MOM disabled.
  Fractional occupation disabled.
  Guess Type is SAD.
  Energy threshold   = 1.00e-10
  Density threshold  = 1.00e-10
  Integral threshold = 1.00e-12

  ==> Primary Basis <==

  Basis Set: AUG-CC-PVDZ
    Blend: AUG-CC-PVDZ
    Number of shells: 148
    Number of basis functions: 348
    Number of Cartesian functions: 372
    Spherical Harmonics?: true
    Max angular momentum: 2

   => Loading Basis Set <=

    Name: (AUG-CC-PVDZ AUX)
    Role: JKFIT
    Keyword: DF_BASIS_SCF
    atoms 1-2, 11-12  entry N          line   212 file /storage/home/hhive1/csargent30/data/miniconda3/envs/psi4/share/psi4/basis/aug-cc-pvdz-jkfit.gbs 
    atoms 3-6, 13-16  entry H          line    70 file /storage/home/hhive1/csargent30/data/miniconda3/envs/psi4/share/psi4/basis/aug-cc-pvdz-jkfit.gbs 
    atoms 7-10, 17-20 entry C          line   154 file /storage/home/hhive1/csargent30/data/miniconda3/envs/psi4/share/psi4/basis/aug-cc-pvdz-jkfit.gbs 

  ==> Integral Setup <==

  ==> DiskDFJK: Density-Fitted J/K Matrices <==

    J tasked:                  Yes
    K tasked:                  Yes
    wK tasked:                  No
    OpenMP threads:              2
    Integrals threads:           2
    Memory [MiB]:             5006
    Algorithm:                Core
    Integral Cache:           LOAD
    Schwarz Cutoff:          1E-12
    Fitting Condition:       1E-10

   => Auxiliary Basis Set <=

  Basis Set: (AUG-CC-PVDZ AUX)
    Blend: AUG-CC-PVDZ-JKFIT
    Number of shells: 432
    Number of basis functions: 1288
    Number of Cartesian functions: 1492
    Spherical Harmonics?: true
    Max angular momentum: 3

  Minimum eigenvalue in the overlap matrix is 9.4670358434E-06.
  Reciprocal condition number of the overlap matrix is 7.3839722645E-07.
    Using symmetric orthogonalization.

  ==> Pre-Iterations <==

  SCF Guess: Superposition of Atomic Densities via on-the-fly atomic UHF (no occupation information).

   -------------------------
    Irrep   Nso     Nmo    
   -------------------------
     A        348     348 
   -------------------------
    Total     348     348
   -------------------------

  ==> Iterations <==

                           Total Energy        Delta E     RMS |[F,P]|

   @DF-RHF iter SAD:  -262.32523126022909   -2.62325e+02   0.00000e+00 
   @DF-RHF iter   1:  -262.53940797811453   -2.14177e-01   1.11985e-03 DIIS
   @DF-RHF iter   2:  -262.62878837361575   -8.93804e-02   4.10664e-04 DIIS
   @DF-RHF iter   3:  -262.63862291834931   -9.83454e-03   1.28248e-04 DIIS
   @DF-RHF iter   4:  -262.63984767156199   -1.22475e-03   3.77599e-05 DIIS
   @DF-RHF iter   5:  -262.63993727202728   -8.96005e-05   7.55558e-06 DIIS
   @DF-RHF iter   6:  -262.63994382228776   -6.55026e-06   2.45264e-06 DIIS
   @DF-RHF iter   7:  -262.63994477466139   -9.52374e-07   6.40130e-07 DIIS
   @DF-RHF iter   8:  -262.63994484854902   -7.38876e-08   9.91693e-08 DIIS
   @DF-RHF iter   9:  -262.63994485053524   -1.98622e-09   1.88228e-08 DIIS
   @DF-RHF iter  10:  -262.63994485060613   -7.08837e-11   3.19151e-09 DIIS
   @DF-RHF iter  11:  -262.63994485060806   -1.93268e-12   5.22317e-10 DIIS
   @DF-RHF iter  12:  -262.63994485060812   -5.68434e-14   9.54334e-11 DIIS
  Energy and wave function converged.


  ==> Post-Iterations <==

    Orbital Energies [Eh]
    ---------------------

    Doubly Occupied:                                                      

       1A    -15.598072     2A    -15.598053     3A    -11.274239  
       4A    -11.274194     5A    -11.272975     6A    -11.272969  
       7A     -1.313347     8A     -1.224176     9A     -1.076803  
      10A     -0.922662    11A     -0.919282    12A     -0.760637  
      13A     -0.738402    14A     -0.706214    15A     -0.647687  
      16A     -0.580711    17A     -0.574369    18A     -0.497113  
      19A     -0.434288    20A     -0.415855    21A     -0.359924  

    Virtual:                                                              

      22A      0.022080    23A      0.034476    24A      0.039078  
      25A      0.040579    26A      0.041052    27A      0.048387  
      28A      0.058376    29A      0.058726    30A      0.067113  
      31A      0.079330    32A      0.084694    33A      0.099419  
      34A      0.100936    35A      0.103650    36A      0.108164  
      37A      0.108513    38A      0.114201    39A      0.114951  
      40A      0.122132    41A      0.123611    42A      0.125278  
      43A      0.125418    44A      0.128662    45A      0.130597  
      46A      0.132889    47A      0.133805    48A      0.151643  
      49A      0.152678    50A      0.158269    51A      0.159018  
      52A      0.161124    53A      0.161364    54A      0.163930  
      55A      0.175180    56A      0.176407    57A      0.186919  
      58A      0.197483    59A      0.203566    60A      0.203911  
      61A      0.206319    62A      0.212539    63A      0.222047  
      64A      0.233278    65A      0.239099    66A      0.250517  
      67A      0.254874    68A      0.267756    69A      0.270439  
      70A      0.278058    71A      0.287812    72A      0.293208  
      73A      0.295709    74A      0.302042    75A      0.314832  
      76A      0.320295    77A      0.320457    78A      0.327815  
      79A      0.330957    80A      0.343779    81A      0.355455  
      82A      0.357909    83A      0.364661    84A      0.380151  
      85A      0.382589    86A      0.385285    87A      0.398896  
      88A      0.400940    89A      0.409906    90A      0.418925  
      91A      0.424589    92A      0.425464    93A      0.433925  
      94A      0.437239    95A      0.441584    96A      0.452092  
      97A      0.460307    98A      0.460758    99A      0.471482  
     100A      0.475735   101A      0.478495   102A      0.492140  
     103A      0.504861   104A      0.507486   105A      0.514915  
     106A      0.523417   107A      0.524554   108A      0.528678  
     109A      0.535388   110A      0.554578   111A      0.557499  
     112A      0.561162   113A      0.564148   114A      0.570535  
     115A      0.581582   116A      0.587535   117A      0.591507  
     118A      0.593799   119A      0.595665   120A      0.608929  
     121A      0.614794   122A      0.619809   123A      0.636017  
     124A      0.643517   125A      0.644324   126A      0.649005  
     127A      0.651141   128A      0.679062   129A      0.684961  
     130A      0.685142   131A      0.687758   132A      0.689935  
     133A      0.690363   134A      0.694832   135A      0.703838  
     136A      0.719543   137A      0.728042   138A      0.746405  
     139A      0.746604   140A      0.754817   141A      0.766965  
     142A      0.775332   143A      0.781406   144A      0.793284  
     145A      0.799816   146A      0.802710   147A      0.810746  
     148A      0.811630   149A      0.819017   150A      0.824406  
     151A      0.831071   152A      0.847512   153A      0.847712  
     154A      0.848841   155A      0.868257   156A      0.880544  
     157A      0.886410   158A      0.887801   159A      0.894682  
     160A      0.905754   161A      0.928767   162A      0.929277  
     163A      0.939469   164A      0.947343   165A      0.949311  
     166A      0.970430   167A      0.976586   168A      0.986290  
     169A      0.996652   170A      0.998909   171A      1.013015  
     172A      1.032070   173A      1.033375   174A      1.046581  
     175A      1.051194   176A      1.075918   177A      1.089381  
     178A      1.089932   179A      1.100445   180A      1.122200  
     181A      1.124044   182A      1.130321   183A      1.134367  
     184A      1.139917   185A      1.158742   186A      1.168240  
     187A      1.170329   188A      1.173565   189A      1.191865  
     190A      1.192898   191A      1.200124   192A      1.221969  
     193A      1.235420   194A      1.238805   195A      1.250681  
     196A      1.307208   197A      1.309675   198A      1.317913  
     199A      1.326066   200A      1.329264   201A      1.331148  
     202A      1.346460   203A      1.388865   204A      1.414283  
     205A      1.448043   206A      1.451528   207A      1.455112  
     208A      1.478789   209A      1.486138   210A      1.486859  
     211A      1.488075   212A      1.499217   213A      1.502849  
     214A      1.518252   215A      1.572686   216A      1.574197  
     217A      1.587842   218A      1.635984   219A      1.640507  
     220A      1.648222   221A      1.658895   222A      1.676552  
     223A      1.697720   224A      1.716991   225A      1.746598  
     226A      1.755104   227A      1.783765   228A      1.815727  
     229A      1.893323   230A      1.916138   231A      1.964829  
     232A      1.987675   233A      2.031203   234A      2.069879  
     235A      2.091549   236A      2.101029   237A      2.102417  
     238A      2.119095   239A      2.142953   240A      2.156328  
     241A      2.158842   242A      2.163356   243A      2.190489  
     244A      2.193303   245A      2.194515   246A      2.200380  
     247A      2.202411   248A      2.227626   249A      2.234427  
     250A      2.240860   251A      2.249312   252A      2.309667  
     253A      2.312761   254A      2.319203   255A      2.355230  
     256A      2.384458   257A      2.418864   258A      2.430957  
     259A      2.435066   260A      2.437822   261A      2.438977  
     262A      2.472329   263A      2.486377   264A      2.497973  
     265A      2.519379   266A      2.522395   267A      2.524723  
     268A      2.545649   269A      2.567986   270A      2.584766  
     271A      2.592026   272A      2.606266   273A      2.625626  
     274A      2.665225   275A      2.675409   276A      2.686398  
     277A      2.713985   278A      2.716556   279A      2.718591  
     280A      2.726305   281A      2.767588   282A      2.844014  
     283A      2.865761   284A      2.903691   285A      2.939197  
     286A      2.946881   287A      2.955405   288A      2.972995  
     289A      3.001856   290A      3.017872   291A      3.032187  
     292A      3.057984   293A      3.064887   294A      3.094138  
     295A      3.113525   296A      3.220329   297A      3.245383  
     298A      3.255980   299A      3.284882   300A      3.289337  
     301A      3.321615   302A      3.337397   303A      3.340142  
     304A      3.348313   305A      3.351040   306A      3.366141  
     307A      3.412285   308A      3.413369   309A      3.470441  
     310A      3.501639   311A      3.514920   312A      3.521051  
     313A      3.590655   314A      3.604125   315A      3.605334  
     316A      3.627769   317A      3.700172   318A      3.818612  
     319A      3.830375   320A      3.940656   321A      3.968783  
     322A      3.977238   323A      4.011091   324A      4.194446  
     325A      4.241945   326A      4.253485   327A      4.441676  
     328A      4.546516   329A      4.578964   330A      4.867327  
     331A      4.975830   332A      5.057541   333A      5.261400  
     334A      5.316226   335A      5.629887   336A      5.691011  
     337A      5.826836   338A      5.952318   339A      6.283516  
     340A      6.306576   341A      6.453452   342A      6.630886  
     343A     18.125403   344A     18.207665   345A     19.017264  
     346A     19.342686   347A     25.286750   348A     25.374469  

    Final Occupation by Irrep:
              A 
    DOCC [    21 ]

  @DF-RHF Final Energy:  -262.63994485060812

   => Energetics <=

    Nuclear Repulsion Energy =            212.5517311431129599
    One-Electron Energy =                -775.4594097581790493
    Two-Electron Energy =                 300.2677337644579438
    Total Energy =                       -262.6399448506081171

Computation Completed


Properties will be evaluated at   0.000000,   0.000000,   0.000000 [a0]

Properties computed using the SCF density matrix

  Nuclear Dipole Moment: [e a0]
     X:  -314.9901      Y: -1119.6302      Z:  -426.5324

  Electronic Dipole Moment: [e a0]
     X:   314.9901      Y:  1119.6302      Z:   426.5324

  Dipole Moment: [e a0]
     X:     0.0000      Y:     0.0000      Z:     0.0000     Total:     0.0000

  Dipole Moment: [D]
     X:     0.0000      Y:     0.0000      Z:     0.0000     Total:     0.0000


*** tstop() called on atl1-1-01-013-11-r.pace.gatech.edu at Mon Nov 29 16:11:47 2021
Module time:
	user time   =      16.46 seconds =       0.27 minutes
	system time =       0.54 seconds =       0.01 minutes
	total time  =          9 seconds =       0.15 minutes
Total time:
	user time   =      62.41 seconds =       1.04 minutes
	system time =       2.15 seconds =       0.04 minutes
	total time  =         35 seconds =       0.58 minutes
  Constructing Basis Sets for SAPT...

   => Loading Basis Set <=

    Name: (AUG-CC-PVDZ AUX)
    Role: RIFIT
    Keyword: DF_BASIS_SAPT
    atoms 1-2, 11-12  entry N          line   158 file /storage/home/hhive1/csargent30/data/miniconda3/envs/psi4/share/psi4/basis/aug-cc-pvdz-ri.gbs 
    atoms 3-6, 13-16  entry H          line    30 file /storage/home/hhive1/csargent30/data/miniconda3/envs/psi4/share/psi4/basis/aug-cc-pvdz-ri.gbs 
    atoms 7-10, 17-20 entry C          line   112 file /storage/home/hhive1/csargent30/data/miniconda3/envs/psi4/share/psi4/basis/aug-cc-pvdz-ri.gbs 


  //>>>>>>>>>>>>>>>>>>>>>>>>>>>>>>>>>>>//
  //               SAPT0               //
  //<<<<<<<<<<<<<<<<<<<<<<<<<<<<<<<<<<<//


*** tstart() called on atl1-1-01-013-11-r.pace.gatech.edu
*** at Mon Nov 29 16:11:47 2021

        SAPT0  
    Ed Hohenstein
     6 June 2009

      Orbital Information
  --------------------------
    NSO        =       348
    NMO        =       348
    NRI        =      1048
    NOCC A     =        21
    NOCC B     =        21
    FOCC A     =         6
    FOCC B     =         6
    NVIR A     =       327
    NVIR B     =       327

    Elst10,r            =     0.000003410125 [Eh]
    Exch10              =     0.000000000015 [Eh]
    Exch10 (S^2)        =     0.000000000015 [Eh]

    Iter     Energy [mEh]          dE [mEh]         Residual      Time [s]
       1      -0.00002293       0.000022931       0.053585937             0
       2      -0.00002057      -0.000002360       0.012438052             0
       3      -0.00002238       0.000001806       0.005540838             1
       4      -0.00002282       0.000000447       0.001880510             1
       5      -0.00002277      -0.000000058       0.001193977             2
       6      -0.00002271      -0.000000057       0.000398138             2
       7      -0.00002272       0.000000010       0.000143093             2
       8      -0.00002272       0.000000004       0.000044124             3
       9      -0.00002272      -0.000000000       0.000014732             3
      10      -0.00002272      -0.000000001       0.000004495             3
      11      -0.00002272       0.000000000       0.000002382             4
      12      -0.00002272       0.000000000       0.000001004             4
      13      -0.00002272      -0.000000000       0.000000380             5

    CHF Iterations converged


    Iter     Energy [mEh]          dE [mEh]         Residual      Time [s]
       1      -0.00000853       0.000008531       0.031831414             0
       2      -0.00000769      -0.000000837       0.007683826             0
       3      -0.00000833       0.000000636       0.003556407             1
       4      -0.00000853       0.000000198       0.001132440             1
       5      -0.00000850      -0.000000024       0.000740178             1
       6      -0.00000848      -0.000000021       0.000250707             2
       7      -0.00000849       0.000000004       0.000087840             2
       8      -0.00000849       0.000000001       0.000028487             3
       9      -0.00000849      -0.000000000       0.000009255             3
      10      -0.00000849      -0.000000000       0.000002962             3
      11      -0.00000849       0.000000000       0.000001584             4
      12      -0.00000849       0.000000000       0.000000621             4

    CHF Iterations converged

    Ind20,r (A<-B)      =    -0.000000022723 [Eh]
    Ind20,r (B<-A)      =    -0.000000008488 [Eh]
    Ind20,r             =    -0.000000031212 [Eh]
    Exch-Ind20,r (A<-B) =     0.000000000012 [Eh]
    Exch-Ind20,r (B<-A) =     0.000000000011 [Eh]
    Exch-Ind20,r        =     0.000000000024 [Eh]
    Disp20              =    -0.000002217068 [Eh]
    Disp20 (SS)         =    -0.000001108534 [Eh]
    Disp20 (OS)         =    -0.000001108534 [Eh]
    Exch-Disp20         =     0.000000000001 [Eh]
    Exch-Disp20 (SS)    =     0.000000000001 [Eh]
    Exch-Disp20 (OS)    =     0.000000000000 [Eh]

    SAPT Results 
  --------------------------------------------------------------------------------------------------------
    Electrostatics                  0.00341013 [mEh]       0.00213989 [kcal/mol]       0.00895328 [kJ/mol]
      Elst10,r                      0.00341013 [mEh]       0.00213989 [kcal/mol]       0.00895328 [kJ/mol]

    Exchange                        0.00000002 [mEh]       0.00000001 [kcal/mol]       0.00000004 [kJ/mol]
      Exch10                        0.00000002 [mEh]       0.00000001 [kcal/mol]       0.00000004 [kJ/mol]
      Exch10(S^2)                   0.00000002 [mEh]       0.00000001 [kcal/mol]       0.00000004 [kJ/mol]

    Induction                      -0.00003776 [mEh]      -0.00002369 [kcal/mol]      -0.00009914 [kJ/mol]
      Ind20,r                      -0.00003121 [mEh]      -0.00001959 [kcal/mol]      -0.00008195 [kJ/mol]
      Exch-Ind20,r                  0.00000002 [mEh]       0.00000002 [kcal/mol]       0.00000006 [kJ/mol]
      delta HF,r (2)               -0.00000657 [mEh]      -0.00000412 [kcal/mol]      -0.00001725 [kJ/mol]

    Dispersion                     -0.00221707 [mEh]      -0.00139123 [kcal/mol]      -0.00582091 [kJ/mol]
      Disp20                       -0.00221707 [mEh]      -0.00139123 [kcal/mol]      -0.00582091 [kJ/mol]
      Exch-Disp20                   0.00000000 [mEh]       0.00000000 [kcal/mol]       0.00000000 [kJ/mol]
      Disp20 (SS)                  -0.00110853 [mEh]      -0.00069562 [kcal/mol]      -0.00291046 [kJ/mol]
      Disp20 (OS)                  -0.00110853 [mEh]      -0.00069562 [kcal/mol]      -0.00291046 [kJ/mol]
      Exch-Disp20 (SS)              0.00000000 [mEh]       0.00000000 [kcal/mol]       0.00000000 [kJ/mol]
      Exch-Disp20 (OS)              0.00000000 [mEh]       0.00000000 [kcal/mol]       0.00000000 [kJ/mol]

  Total HF                          0.00337238 [mEh]       0.00211620 [kcal/mol]       0.00885419 [kJ/mol]
  Total SAPT0                       0.00115531 [mEh]       0.00072497 [kcal/mol]       0.00303328 [kJ/mol]

  Special recipe for scaled SAPT0 (see Manual):
    Electrostatics sSAPT0           0.00341013 [mEh]       0.00213989 [kcal/mol]       0.00895328 [kJ/mol]
    Exchange sSAPT0                 0.00000002 [mEh]       0.00000001 [kcal/mol]       0.00000004 [kJ/mol]
    Induction sSAPT0               -0.00003776 [mEh]      -0.00002369 [kcal/mol]      -0.00009914 [kJ/mol]
    Dispersion sSAPT0              -0.00221707 [mEh]      -0.00139123 [kcal/mol]      -0.00582091 [kJ/mol]
  Total sSAPT0                      0.00115531 [mEh]       0.00072497 [kcal/mol]       0.00303328 [kJ/mol]
  --------------------------------------------------------------------------------------------------------

*** tstop() called on atl1-1-01-013-11-r.pace.gatech.edu at Mon Nov 29 16:12:14 2021
Module time:
	user time   =      40.18 seconds =       0.67 minutes
	system time =       9.94 seconds =       0.17 minutes
	total time  =         27 seconds =       0.45 minutes
Total time:
	user time   =     102.83 seconds =       1.71 minutes
	system time =      12.10 seconds =       0.20 minutes
	total time  =         62 seconds =       1.03 minutes


Warning! sapt0 does not have an associated derived wavefunction.The returned wavefunction is the dimer SCF wavefunction.


    Psi4 stopped on: Monday, 29 November 2021 04:12PM
    Psi4 wall time for execution: 0:01:01.78

*** Psi4 exiting successfully. Buy a developer a beer!
