
    -----------------------------------------------------------------------
          Psi4: An Open-Source Ab Initio Electronic Structure Package
                               Psi4 1.4.1 release

                         Git: Rev {HEAD} cd00f19


    D. G. A. Smith, L. A. Burns, A. C. Simmonett, R. M. Parrish,
    M. C. Schieber, R. Galvelis, P. Kraus, H. Kruse, R. Di Remigio,
    A. Alenaizan, A. M. James, S. Lehtola, J. P. Misiewicz, M. Scheurer,
    R. A. Shaw, J. B. Schriber, Y. Xie, Z. L. Glick, D. A. Sirianni,
    J. S. O'Brien, J. M. Waldrop, A. Kumar, E. G. Hohenstein,
    B. P. Pritchard, B. R. Brooks, H. F. Schaefer III, A. Yu. Sokolov,
    K. Patkowski, A. E. DePrince III, U. Bozkaya, R. A. King,
    F. A. Evangelista, J. M. Turney, T. D. Crawford, C. D. Sherrill,
    J. Chem. Phys. 152(18) 184108 (2020). https://doi.org/10.1063/5.0006002

                            Additional Code Authors
    E. T. Seidl, C. L. Janssen, E. F. Valeev, M. L. Leininger,
    J. F. Gonthier, R. M. Richard, H. R. McAlexander, M. Saitow, X. Wang,
    P. Verma, and M. H. Lechner

             Previous Authors, Complete List of Code Contributors,
                       and Citations for Specific Modules
    https://github.com/psi4/psi4/blob/master/codemeta.json
    https://github.com/psi4/psi4/graphs/contributors
    http://psicode.org/psi4manual/master/introduction.html#citing-psifour

    -----------------------------------------------------------------------


    Psi4 started on: Monday, 29 November 2021 04:10PM

    Process ID: 382571
    Host:       atl1-1-01-013-15-r.pace.gatech.edu
    PSIDATADIR: /storage/home/hhive1/csargent30/data/miniconda3/envs/psi4/share/psi4
    Memory:     500.0 MiB
    Threads:    2

  ==> Input File <==

--------------------------------------------------------------------------
# PSI4 file produced by CrystaLattE

# Generated from:               pyrazine.xyz
# Psithon input for N-mer:      2mer-0+473
# Number of atoms per monomer:  [10, 10]
# Number of replicas:           2
# COM priority:                 1.211048279593e-05
# Minimum COM separations:      23.043
# Separation priority:          2.021859962497e-05
# Minimum monomer separations:  19.425
# Cutoff priority:              5.508095097348e-07
# Nuclear repulsion energy:     465.67482647497053

memory 7 GB

molecule Dimer_0_473 {
  N           -1.33084758       0.98032658       0.42627037
  N            3.95377333       0.98032658       0.42627037
  H            3.56713674       4.35218569      -0.94230973
  H           -0.94421098       4.35218569      -0.94230973
  H           -0.94421098      -2.39153253       1.79485047
  H            3.56713674      -2.39153253       1.79485047
  C            2.62292576       2.94097974      -0.42627037
  C            0.00000000       2.94097974      -0.42627037
  C            0.00000000      -0.98032658       1.27881112
  C            2.62292576      -0.98032658       1.27881112
--
  N           -1.33084758     -32.18550076      28.64441677
  N            3.95377333     -32.18550076      28.64441677
  H            3.56713674     -28.81364165      27.27583667
  H           -0.94421098     -28.81364165      27.27583667
  H           -0.94421098     -35.55735987      30.01299687
  H            3.56713674     -35.55735987      30.01299687
  C            2.62292576     -30.22484760      27.79187602
  C            0.00000000     -30.22484760      27.79187602
  C            0.00000000     -34.14615392      29.49695752
  C            2.62292576     -34.14615392      29.49695752
units = au
no_com
no_reorient
}

set {
  e_convergence 10
  d_convergence 10
  scf_type df
  mp2_type df
  cc_type df
  freeze_core true
}

energy('sapt0/aug-cc-pvdz')

--------------------------------------------------------------------------

  Memory set to   6.519 GiB by Python driver.

Scratch directory: /tmp/

Scratch directory: /tmp/

  //>>>>>>>>>>>>>>>>>>>>>>>>>>>>>>>>>>>//
  //              Dimer HF             //
  //<<<<<<<<<<<<<<<<<<<<<<<<<<<<<<<<<<<//


*** tstart() called on atl1-1-01-013-15-r.pace.gatech.edu
*** at Mon Nov 29 16:10:42 2021

   => Loading Basis Set <=

    Name: AUG-CC-PVDZ
    Role: ORBITAL
    Keyword: BASIS
    atoms 1-2, 11-12  entry N          line   218 file /storage/home/hhive1/csargent30/data/miniconda3/envs/psi4/share/psi4/basis/aug-cc-pvdz.gbs
    atoms 3-6, 13-16  entry H          line    40 file /storage/home/hhive1/csargent30/data/miniconda3/envs/psi4/share/psi4/basis/aug-cc-pvdz.gbs
    atoms 7-10, 17-20 entry C          line   182 file /storage/home/hhive1/csargent30/data/miniconda3/envs/psi4/share/psi4/basis/aug-cc-pvdz.gbs


         ---------------------------------------------------------
                                   SCF
               by Justin Turney, Rob Parrish, Andy Simmonett
                          and Daniel G. A. Smith
                              RHF Reference
                        2 Threads,   6675 MiB Core
         ---------------------------------------------------------

  ==> Geometry <==

    Molecular point group: c1
    Full point group: C1

    Geometry (in Bohr), charge = 0, multiplicity = 1:

       Center              X                  Y                   Z               Mass
    ------------   -----------------  -----------------  -----------------  -----------------
         N           -1.330847580000     0.980326580000     0.426270370000    14.003074004430
         N            3.953773330000     0.980326580000     0.426270370000    14.003074004430
         H            3.567136740000     4.352185690000    -0.942309730000     1.007825032230
         H           -0.944210980000     4.352185690000    -0.942309730000     1.007825032230
         H           -0.944210980000    -2.391532530000     1.794850470000     1.007825032230
         H            3.567136740000    -2.391532530000     1.794850470000     1.007825032230
         C            2.622925760000     2.940979740000    -0.426270370000    12.000000000000
         C            0.000000000000     2.940979740000    -0.426270370000    12.000000000000
         C            0.000000000000    -0.980326580000     1.278811120000    12.000000000000
         C            2.622925760000    -0.980326580000     1.278811120000    12.000000000000
         N           -1.330847580000   -32.185500760000    28.644416770000    14.003074004430
         N            3.953773330000   -32.185500760000    28.644416770000    14.003074004430
         H            3.567136740000   -28.813641650000    27.275836670000     1.007825032230
         H           -0.944210980000   -28.813641650000    27.275836670000     1.007825032230
         H           -0.944210980000   -35.557359870000    30.012996870000     1.007825032230
         H            3.567136740000   -35.557359870000    30.012996870000     1.007825032230
         C            2.622925760000   -30.224847600000    27.791876020000    12.000000000000
         C            0.000000000000   -30.224847600000    27.791876020000    12.000000000000
         C            0.000000000000   -34.146153920000    29.496957520000    12.000000000000
         C            2.622925760000   -34.146153920000    29.496957520000    12.000000000000

  Running in c1 symmetry.

  Rotational constants: A =      0.06942  B =      0.00040  C =      0.00040 [cm^-1]
  Rotational constants: A =   2081.03430  B =     12.08512  C =     12.03316 [MHz]
  Nuclear repulsion =  465.674826400747577

  Charge       = 0
  Multiplicity = 1
  Electrons    = 84
  Nalpha       = 42
  Nbeta        = 42

  ==> Algorithm <==

  SCF Algorithm Type is DF.
  DIIS enabled.
  MOM disabled.
  Fractional occupation disabled.
  Guess Type is SAD.
  Energy threshold   = 1.00e-10
  Density threshold  = 1.00e-10
  Integral threshold = 1.00e-12

  ==> Primary Basis <==

  Basis Set: AUG-CC-PVDZ
    Blend: AUG-CC-PVDZ
    Number of shells: 148
    Number of basis functions: 348
    Number of Cartesian functions: 372
    Spherical Harmonics?: true
    Max angular momentum: 2

   => Loading Basis Set <=

    Name: (AUG-CC-PVDZ AUX)
    Role: JKFIT
    Keyword: DF_BASIS_SCF
    atoms 1-2, 11-12  entry N          line   212 file /storage/home/hhive1/csargent30/data/miniconda3/envs/psi4/share/psi4/basis/aug-cc-pvdz-jkfit.gbs
    atoms 3-6, 13-16  entry H          line    70 file /storage/home/hhive1/csargent30/data/miniconda3/envs/psi4/share/psi4/basis/aug-cc-pvdz-jkfit.gbs
    atoms 7-10, 17-20 entry C          line   154 file /storage/home/hhive1/csargent30/data/miniconda3/envs/psi4/share/psi4/basis/aug-cc-pvdz-jkfit.gbs

  ==> Integral Setup <==

  ==> DiskDFJK: Density-Fitted J/K Matrices <==

    J tasked:                  Yes
    K tasked:                  Yes
    wK tasked:                  No
    OpenMP threads:              2
    Integrals threads:           2
    Memory [MiB]:             5006
    Algorithm:                Core
    Integral Cache:           SAVE
    Schwarz Cutoff:          1E-12
    Fitting Condition:       1E-10

   => Auxiliary Basis Set <=

  Basis Set: (AUG-CC-PVDZ AUX)
    Blend: AUG-CC-PVDZ-JKFIT
    Number of shells: 432
    Number of basis functions: 1288
    Number of Cartesian functions: 1492
    Spherical Harmonics?: true
    Max angular momentum: 3

  Minimum eigenvalue in the overlap matrix is 9.4898708957E-06.
  Reciprocal condition number of the overlap matrix is 7.4017881689E-07.
    Using symmetric orthogonalization.

  ==> Pre-Iterations <==

  SCF Guess: Superposition of Atomic Densities via on-the-fly atomic UHF (no occupation information).

   -------------------------
    Irrep   Nso     Nmo
   -------------------------
     A        348     348
   -------------------------
    Total     348     348
   -------------------------

  ==> Iterations <==

                           Total Energy        Delta E     RMS |[F,P]|

   @DF-RHF iter SAD:  -524.65046250958949   -5.24650e+02   0.00000e+00
   @DF-RHF iter   1:  -525.07881330777980   -4.28351e-01   1.58372e-03 DIIS
   @DF-RHF iter   2:  -525.25757425459904   -1.78761e-01   5.80773e-04 DIIS
   @DF-RHF iter   3:  -525.27724366723317   -1.96694e-02   1.81373e-04 DIIS
   @DF-RHF iter   4:  -525.27969322081913   -2.44955e-03   5.34017e-05 DIIS
   @DF-RHF iter   5:  -525.27987242880818   -1.79208e-04   1.06852e-05 DIIS
   @DF-RHF iter   6:  -525.27988552959039   -1.31008e-05   3.46862e-06 DIIS
   @DF-RHF iter   7:  -525.27988743442688   -1.90484e-06   9.05312e-07 DIIS
   @DF-RHF iter   8:  -525.27988758221011   -1.47783e-07   1.40310e-07 DIIS
   @DF-RHF iter   9:  -525.27988758618289   -3.97279e-09   2.70333e-08 DIIS
   @DF-RHF iter  10:  -525.27988758632375   -1.40858e-10   7.00730e-09 DIIS
   @DF-RHF iter  11:  -525.27988758632830   -4.54747e-12   3.19317e-09 DIIS
   @DF-RHF iter  12:  -525.27988758633046   -2.16005e-12   4.43461e-10 DIIS
   @DF-RHF iter  13:  -525.27988758633012    3.41061e-13   9.48653e-11 DIIS
  Energy and wave function converged.


  ==> Post-Iterations <==

    Orbital Energies [Eh]
    ---------------------

    Doubly Occupied:

       1A    -15.598170     2A    -15.598170     3A    -15.598152
       4A    -15.598152     5A    -11.274338     6A    -11.274338
       7A    -11.274293     8A    -11.274293     9A    -11.273075
      10A    -11.273075    11A    -11.273067    12A    -11.273067
      13A     -1.313445    14A     -1.313445    15A     -1.224274
      16A     -1.224274    17A     -1.076902    18A     -1.076902
      19A     -0.922761    20A     -0.922761    21A     -0.919382
      22A     -0.919382    23A     -0.760736    24A     -0.760736
      25A     -0.738501    26A     -0.738501    27A     -0.706313
      28A     -0.706313    29A     -0.647787    30A     -0.647787
      31A     -0.580810    32A     -0.580810    33A     -0.574468
      34A     -0.574468    35A     -0.497211    36A     -0.497211
      37A     -0.434386    38A     -0.434386    39A     -0.415954
      40A     -0.415954    41A     -0.360023    42A     -0.360023

    Virtual:

      43A      0.034394    44A      0.034394    45A      0.040633
      46A      0.040633    47A      0.048287    48A      0.048287
      49A      0.058493    50A      0.058493    51A      0.067013
      52A      0.067013    53A      0.099320    54A      0.099320
      55A      0.100846    56A      0.100846    57A      0.114103
      58A      0.114103    59A      0.114854    60A      0.114854
      61A      0.123678    62A      0.123678    63A      0.125226
      64A      0.125226    65A      0.128560    66A      0.128560
      67A      0.132787    68A      0.132787    69A      0.158095
      70A      0.158095    71A      0.160982    72A      0.160982
      73A      0.161227    74A      0.161227    75A      0.163816
      76A      0.163816    77A      0.175078    78A      0.175078
      79A      0.186820    80A      0.186820    81A      0.203807
      82A      0.203807    83A      0.212442    84A      0.212442
      85A      0.250420    86A      0.250420    87A      0.267660
      88A      0.267660    89A      0.277958    90A      0.277958
      91A      0.287716    92A      0.287716    93A      0.293107
      94A      0.293107    95A      0.295654    96A      0.295654
      97A      0.314733    98A      0.314733    99A      0.320358
     100A      0.320358   101A      0.355330   102A      0.355330
     103A      0.357808   104A      0.357808   105A      0.364562
     106A      0.364562   107A      0.382483   108A      0.382483
     109A      0.398790   110A      0.398790   111A      0.409796
     112A      0.409796   113A      0.425352   114A      0.425353
     115A      0.433824   116A      0.433824   117A      0.437109
     118A      0.437109   119A      0.451993   120A      0.451993
     121A      0.471384   122A      0.471384   123A      0.492040
     124A      0.492040   125A      0.504761   126A      0.504761
     127A      0.514814   128A      0.514814   129A      0.524447
     130A      0.524447   131A      0.528569   132A      0.528569
     133A      0.554478   134A      0.554478   135A      0.570435
     136A      0.570435   137A      0.587436   138A      0.587436
     139A      0.591408   140A      0.591408   141A      0.593700
     142A      0.593700   143A      0.608830   144A      0.608830
     145A      0.643419   146A      0.643419   147A      0.644220
     148A      0.644220   149A      0.685037   150A      0.685037
     151A      0.687659   152A      0.687659   153A      0.689831
     154A      0.689831   155A      0.690244   156A      0.690244
     157A      0.694728   158A      0.694728   159A      0.703730
     160A      0.703730   161A      0.746457   162A      0.746457
     163A      0.754717   164A      0.754717   165A      0.766867
     166A      0.766867   167A      0.781307   168A      0.781307
     169A      0.799715   170A      0.799715   171A      0.802610
     172A      0.802610   173A      0.818917   174A      0.818917
     175A      0.830972   176A      0.830972   177A      0.847414
     178A      0.847414   179A      0.880445   180A      0.880445
     181A      0.886310   182A      0.886310   183A      0.894583
     184A      0.894583   185A      0.929171   186A      0.929171
     187A      0.939368   188A      0.939368   189A      0.949207
     190A      0.949207   191A      0.996554   192A      0.996554
     193A      0.998810   194A      0.998810   195A      1.012917
     196A      1.012917   197A      1.033271   198A      1.033271
     199A      1.051095   200A      1.051095   201A      1.089283
     202A      1.089283   203A      1.100347   204A      1.100347
     205A      1.122099   206A      1.122099   207A      1.123946
     208A      1.123946   209A      1.134263   210A      1.134263
     211A      1.158641   212A      1.158641   213A      1.173466
     214A      1.173466   215A      1.235318   216A      1.235318
     217A      1.238705   218A      1.238705   219A      1.309574
     220A      1.309574   221A      1.331049   222A      1.331049
     223A      1.414182   224A      1.414182   225A      1.451428
     226A      1.451428   227A      1.486039   228A      1.486039
     229A      1.487976   230A      1.487976   231A      1.499111
     232A      1.499111   233A      1.502747   234A      1.502747
     235A      1.518151   236A      1.518151   237A      1.572587
     238A      1.572587   239A      1.574093   240A      1.574093
     241A      1.587737   242A      1.587737   243A      1.635882
     244A      1.635882   245A      1.640405   246A      1.640405
     247A      1.648120   248A      1.648120   249A      1.676453
     250A      1.676453   251A      1.716892   252A      1.716892
     253A      1.746498   254A      1.746498   255A      1.755005
     256A      1.755005   257A      1.783663   258A      1.783663
     259A      1.815628   260A      1.815628   261A      1.893224
     262A      1.893224   263A      1.916038   264A      1.916038
     265A      1.964729   266A      1.964729   267A      1.987576
     268A      1.987576   269A      2.031103   270A      2.031103
     271A      2.091449   272A      2.091449   273A      2.100929
     274A      2.100929   275A      2.142854   276A      2.142854
     277A      2.163256   278A      2.163256   279A      2.190389
     280A      2.190389   281A      2.193202   282A      2.193202
     283A      2.200280   284A      2.200280   285A      2.202311
     286A      2.202311   287A      2.227527   288A      2.227527
     289A      2.312662   290A      2.312662   291A      2.355129
     292A      2.355129   293A      2.430858   294A      2.430858
     295A      2.438878   296A      2.438878   297A      2.519280
     298A      2.519280   299A      2.522295   300A      2.522295
     301A      2.584668   302A      2.584668   303A      2.606168
     304A      2.606168   305A      2.665125   306A      2.665125
     307A      2.675311   308A      2.675311   309A      2.686296
     310A      2.686296   311A      2.713886   312A      2.713886
     313A      2.718492   314A      2.718492   315A      2.843916
     316A      2.843916   317A      2.865662   318A      2.865662
     319A      2.939097   320A      2.939097   321A      3.001756
     322A      3.001756   323A      3.017773   324A      3.017773
     325A      3.032088   326A      3.032088   327A      3.094037
     328A      3.094037   329A      3.220217   330A      3.220217
     331A      3.255880   332A      3.255880   333A      3.284781
     334A      3.284781   335A      3.366041   336A      3.366041
     337A      3.413267   338A      3.413267   339A      3.514821
     340A      3.514821   341A      3.590555   342A      3.590555
     343A      3.627670   344A      3.627670   345A      3.977137
     346A      3.977137   347A      4.253386   348A      4.253386

    Final Occupation by Irrep:
              A
    DOCC [    42 ]

  @DF-RHF Final Energy:  -525.27988758633012

   => Energetics <=

    Nuclear Repulsion Energy =            465.6748264007475768
    One-Electron Energy =               -1632.0532338930006517
    Two-Electron Energy =                 641.0985199059228989
    Total Energy =                       -525.2798875863301191

Computation Completed


Properties will be evaluated at   0.000000,   0.000000,   0.000000 [a0]

Properties computed using the SCF density matrix

  Nuclear Dipole Moment: [e a0]
     X:   110.1629      Y: -1310.6173      Z:  1220.9689

  Electronic Dipole Moment: [e a0]
     X:  -110.1629      Y:  1310.6173      Z: -1220.9689

  Dipole Moment: [e a0]
     X:     0.0000      Y:     0.0000      Z:     0.0000     Total:     0.0000

  Dipole Moment: [D]
     X:     0.0000      Y:     0.0000      Z:     0.0000     Total:     0.0000


*** tstop() called on atl1-1-01-013-15-r.pace.gatech.edu at Mon Nov 29 16:10:55 2021
Module time:
	user time   =      23.54 seconds =       0.39 minutes
	system time =       0.95 seconds =       0.02 minutes
	total time  =         13 seconds =       0.22 minutes
Total time:
	user time   =      23.54 seconds =       0.39 minutes
	system time =       0.95 seconds =       0.02 minutes
	total time  =         13 seconds =       0.22 minutes

  //>>>>>>>>>>>>>>>>>>>>>>>>>>>>>>>>>>>//
  //            Monomer A HF           //
  //<<<<<<<<<<<<<<<<<<<<<<<<<<<<<<<<<<<//


*** tstart() called on atl1-1-01-013-15-r.pace.gatech.edu
*** at Mon Nov 29 16:10:55 2021

   => Loading Basis Set <=

    Name: AUG-CC-PVDZ
    Role: ORBITAL
    Keyword: BASIS
    atoms 1-2, 11-12  entry N          line   218 file /storage/home/hhive1/csargent30/data/miniconda3/envs/psi4/share/psi4/basis/aug-cc-pvdz.gbs
    atoms 3-6, 13-16  entry H          line    40 file /storage/home/hhive1/csargent30/data/miniconda3/envs/psi4/share/psi4/basis/aug-cc-pvdz.gbs
    atoms 7-10, 17-20 entry C          line   182 file /storage/home/hhive1/csargent30/data/miniconda3/envs/psi4/share/psi4/basis/aug-cc-pvdz.gbs


         ---------------------------------------------------------
                                   SCF
               by Justin Turney, Rob Parrish, Andy Simmonett
                          and Daniel G. A. Smith
                              RHF Reference
                        2 Threads,   6675 MiB Core
         ---------------------------------------------------------

  ==> Geometry <==

    Molecular point group: c1
    Full point group: C1

    Geometry (in Bohr), charge = 0, multiplicity = 1:

       Center              X                  Y                   Z               Mass
    ------------   -----------------  -----------------  -----------------  -----------------
         N           -1.330847580000     0.980326580000     0.426270370000    14.003074004430
         N            3.953773330000     0.980326580000     0.426270370000    14.003074004430
         H            3.567136740000     4.352185690000    -0.942309730000     1.007825032230
         H           -0.944210980000     4.352185690000    -0.942309730000     1.007825032230
         H           -0.944210980000    -2.391532530000     1.794850470000     1.007825032230
         H            3.567136740000    -2.391532530000     1.794850470000     1.007825032230
         C            2.622925760000     2.940979740000    -0.426270370000    12.000000000000
         C            0.000000000000     2.940979740000    -0.426270370000    12.000000000000
         C            0.000000000000    -0.980326580000     1.278811120000    12.000000000000
         C            2.622925760000    -0.980326580000     1.278811120000    12.000000000000
      Gh(N)          -1.330847580000   -32.185500760000    28.644416770000    14.003074004430
      Gh(N)           3.953773330000   -32.185500760000    28.644416770000    14.003074004430
      Gh(H)           3.567136740000   -28.813641650000    27.275836670000     1.007825032230
      Gh(H)          -0.944210980000   -28.813641650000    27.275836670000     1.007825032230
      Gh(H)          -0.944210980000   -35.557359870000    30.012996870000     1.007825032230
      Gh(H)           3.567136740000   -35.557359870000    30.012996870000     1.007825032230
      Gh(C)           2.622925760000   -30.224847600000    27.791876020000    12.000000000000
      Gh(C)           0.000000000000   -30.224847600000    27.791876020000    12.000000000000
      Gh(C)           0.000000000000   -34.146153920000    29.496957520000    12.000000000000
      Gh(C)           2.622925760000   -34.146153920000    29.496957520000    12.000000000000

  Running in c1 symmetry.

  Rotational constants: A =      0.06942  B =      0.00040  C =      0.00040 [cm^-1]
  Rotational constants: A =   2081.03430  B =     12.08512  C =     12.03316 [MHz]
  Nuclear repulsion =  212.551731110485349

  Charge       = 0
  Multiplicity = 1
  Electrons    = 42
  Nalpha       = 21
  Nbeta        = 21

  ==> Algorithm <==

  SCF Algorithm Type is DF.
  DIIS enabled.
  MOM disabled.
  Fractional occupation disabled.
  Guess Type is SAD.
  Energy threshold   = 1.00e-10
  Density threshold  = 1.00e-10
  Integral threshold = 1.00e-12

  ==> Primary Basis <==

  Basis Set: AUG-CC-PVDZ
    Blend: AUG-CC-PVDZ
    Number of shells: 148
    Number of basis functions: 348
    Number of Cartesian functions: 372
    Spherical Harmonics?: true
    Max angular momentum: 2

   => Loading Basis Set <=

    Name: (AUG-CC-PVDZ AUX)
    Role: JKFIT
    Keyword: DF_BASIS_SCF
    atoms 1-2, 11-12  entry N          line   212 file /storage/home/hhive1/csargent30/data/miniconda3/envs/psi4/share/psi4/basis/aug-cc-pvdz-jkfit.gbs
    atoms 3-6, 13-16  entry H          line    70 file /storage/home/hhive1/csargent30/data/miniconda3/envs/psi4/share/psi4/basis/aug-cc-pvdz-jkfit.gbs
    atoms 7-10, 17-20 entry C          line   154 file /storage/home/hhive1/csargent30/data/miniconda3/envs/psi4/share/psi4/basis/aug-cc-pvdz-jkfit.gbs

  ==> Integral Setup <==

  ==> DiskDFJK: Density-Fitted J/K Matrices <==

    J tasked:                  Yes
    K tasked:                  Yes
    wK tasked:                  No
    OpenMP threads:              2
    Integrals threads:           2
    Memory [MiB]:             5006
    Algorithm:                Core
    Integral Cache:           LOAD
    Schwarz Cutoff:          1E-12
    Fitting Condition:       1E-10

   => Auxiliary Basis Set <=

  Basis Set: (AUG-CC-PVDZ AUX)
    Blend: AUG-CC-PVDZ-JKFIT
    Number of shells: 432
    Number of basis functions: 1288
    Number of Cartesian functions: 1492
    Spherical Harmonics?: true
    Max angular momentum: 3

  Minimum eigenvalue in the overlap matrix is 9.4898708957E-06.
  Reciprocal condition number of the overlap matrix is 7.4017881689E-07.
    Using symmetric orthogonalization.

  ==> Pre-Iterations <==

  SCF Guess: Superposition of Atomic Densities via on-the-fly atomic UHF (no occupation information).

   -------------------------
    Irrep   Nso     Nmo
   -------------------------
     A        348     348
   -------------------------
    Total     348     348
   -------------------------

  ==> Iterations <==

                           Total Energy        Delta E     RMS |[F,P]|

   @DF-RHF iter SAD:  -262.32523125847081   -2.62325e+02   0.00000e+00
   @DF-RHF iter   1:  -262.53940798262141   -2.14177e-01   1.11985e-03 DIIS
   @DF-RHF iter   2:  -262.62878837497203   -8.93804e-02   4.10664e-04 DIIS
   @DF-RHF iter   3:  -262.63862291952444   -9.83454e-03   1.28248e-04 DIIS
   @DF-RHF iter   4:  -262.63984767279629   -1.22475e-03   3.77599e-05 DIIS
   @DF-RHF iter   5:  -262.63993727325834   -8.96005e-05   7.55558e-06 DIIS
   @DF-RHF iter   6:  -262.63994382351831   -6.55026e-06   2.45264e-06 DIIS
   @DF-RHF iter   7:  -262.63994477589102   -9.52373e-07   6.40130e-07 DIIS
   @DF-RHF iter   8:  -262.63994484977900   -7.38880e-08   9.91693e-08 DIIS
   @DF-RHF iter   9:  -262.63994485176528   -1.98628e-09   1.88228e-08 DIIS
   @DF-RHF iter  10:  -262.63994485183650   -7.12248e-11   3.19151e-09 DIIS
   @DF-RHF iter  11:  -262.63994485183804   -1.53477e-12   5.22317e-10 DIIS
   @DF-RHF iter  12:  -262.63994485183889   -8.52651e-13   9.54360e-11 DIIS
  Energy and wave function converged.


  ==> Post-Iterations <==

    Orbital Energies [Eh]
    ---------------------

    Doubly Occupied:

       1A    -15.598072     2A    -15.598053     3A    -11.274239
       4A    -11.274194     5A    -11.272975     6A    -11.272969
       7A     -1.313347     8A     -1.224176     9A     -1.076803
      10A     -0.922662    11A     -0.919282    12A     -0.760637
      13A     -0.738402    14A     -0.706214    15A     -0.647687
      16A     -0.580711    17A     -0.574369    18A     -0.497113
      19A     -0.434288    20A     -0.415855    21A     -0.359924

    Virtual:

      22A      0.022259    23A      0.034497    24A      0.039328
      25A      0.040739    26A      0.041010    27A      0.048384
      28A      0.058591    29A      0.058676    30A      0.067113
      31A      0.079507    32A      0.084868    33A      0.099419
      34A      0.100948    35A      0.103819    36A      0.108340
      37A      0.108681    38A      0.114201    39A      0.114951
      40A      0.122322    41A      0.123776    42A      0.125322
      43A      0.125409    44A      0.128661    45A      0.130770
      46A      0.132889    47A      0.133972    48A      0.151930
      49A      0.152855    50A      0.158199    51A      0.159170
      52A      0.161084    53A      0.161326    54A      0.163914
      55A      0.175179    56A      0.176568    57A      0.186918
      58A      0.197629    59A      0.203728    60A      0.203908
      61A      0.206486    62A      0.212538    63A      0.222205
      64A      0.233440    65A      0.239265    66A      0.250517
      67A      0.255047    68A      0.267756    69A      0.270603
      70A      0.278056    71A      0.287812    72A      0.293207
      73A      0.295749    74A      0.302144    75A      0.314832
      76A      0.320457    77A      0.320464    78A      0.327983
      79A      0.331126    80A      0.343946    81A      0.355428
      82A      0.357908    83A      0.364661    84A      0.380323
      85A      0.382583    86A      0.385459    87A      0.398891
      88A      0.401098    89A      0.409895    90A      0.419096
      91A      0.424772    92A      0.425453    93A      0.433925
      94A      0.437212    95A      0.441756    96A      0.452092
      97A      0.460481    98A      0.460927    99A      0.471483
     100A      0.475910   101A      0.478643   102A      0.492140
     103A      0.504862   104A      0.507644   105A      0.514914
     106A      0.523590   107A      0.524547   108A      0.528668
     109A      0.535554   110A      0.554577   111A      0.557669
     112A      0.561337   113A      0.564318   114A      0.570535
     115A      0.581728   116A      0.587535   117A      0.591506
     118A      0.593799   119A      0.595833   120A      0.608929
     121A      0.614966   122A      0.619985   123A      0.636189
     124A      0.643517   125A      0.644321   126A      0.649178
     127A      0.651313   128A      0.679236   129A      0.685136
     130A      0.685140   131A      0.687758   132A      0.689932
     133A      0.690342   134A      0.694828   135A      0.703829
     136A      0.719711   137A      0.728215   138A      0.746558
     139A      0.746611   140A      0.754817   141A      0.766965
     142A      0.775505   143A      0.781406   144A      0.793455
     145A      0.799815   146A      0.802710   147A      0.810918
     148A      0.811801   149A      0.819016   150A      0.824576
     151A      0.831071   152A      0.847513   153A      0.847887
     154A      0.849009   155A      0.868429   156A      0.880544
     157A      0.886410   158A      0.887972   159A      0.894682
     160A      0.905928   161A      0.928936   162A      0.929272
     163A      0.939466   164A      0.947515   165A      0.949307
     166A      0.970603   167A      0.976760   168A      0.986462
     169A      0.996652   170A      0.998908   171A      1.013015
     172A      1.032242   173A      1.033370   174A      1.046753
     175A      1.051194   176A      1.076088   177A      1.089381
     178A      1.090102   179A      1.100445   180A      1.122199
     181A      1.124044   182A      1.130487   183A      1.134362
     184A      1.140089   185A      1.158740   186A      1.168412
     187A      1.170500   188A      1.173565   189A      1.192032
     190A      1.193065   191A      1.200298   192A      1.222140
     193A      1.235416   194A      1.238804   195A      1.250852
     196A      1.307382   197A      1.309674   198A      1.318086
     199A      1.326237   200A      1.329436   201A      1.331148
     202A      1.346633   203A      1.389037   204A      1.414282
     205A      1.448214   206A      1.451526   207A      1.455284
     208A      1.478958   209A      1.486137   210A      1.487030
     211A      1.488075   212A      1.499211   213A      1.502846
     214A      1.518252   215A      1.572686   216A      1.574192
     217A      1.587836   218A      1.635982   219A      1.640505
     220A      1.648219   221A      1.659065   222A      1.676552
     223A      1.697892   224A      1.716991   225A      1.746597
     226A      1.755104   227A      1.783762   228A      1.815727
     229A      1.893323   230A      1.916137   231A      1.964829
     232A      1.987674   233A      2.031202   234A      2.070052
     235A      2.091548   236A      2.101028   237A      2.102590
     238A      2.119269   239A      2.142953   240A      2.156501
     241A      2.159015   242A      2.163355   243A      2.190488
     244A      2.193301   245A      2.194686   246A      2.200380
     247A      2.202410   248A      2.227626   249A      2.234601
     250A      2.241028   251A      2.249485   252A      2.309840
     253A      2.312761   254A      2.319373   255A      2.355229
     256A      2.384631   257A      2.419035   258A      2.430957
     259A      2.435239   260A      2.437991   261A      2.438977
     262A      2.472502   263A      2.486550   264A      2.498146
     265A      2.519379   266A      2.522395   267A      2.524893
     268A      2.545821   269A      2.568153   270A      2.584766
     271A      2.592198   272A      2.606266   273A      2.625798
     274A      2.665224   275A      2.675409   276A      2.686395
     277A      2.713985   278A      2.716723   279A      2.718591
     280A      2.726478   281A      2.767761   282A      2.844014
     283A      2.865761   284A      2.903862   285A      2.939196
     286A      2.947053   287A      2.955578   288A      2.973168
     289A      3.001855   290A      3.017872   291A      3.032186
     292A      3.058157   293A      3.065055   294A      3.094137
     295A      3.113695   296A      3.220316   297A      3.245556
     298A      3.255980   299A      3.284880   300A      3.289509
     301A      3.321788   302A      3.337569   303A      3.340314
     304A      3.348486   305A      3.351210   306A      3.366140
     307A      3.412458   308A      3.413367   309A      3.470612
     310A      3.501813   311A      3.514920   312A      3.521223
     313A      3.590655   314A      3.604297   315A      3.605504
     316A      3.627769   317A      3.700344   318A      3.818783
     319A      3.830547   320A      3.940829   321A      3.968955
     322A      3.977236   323A      4.011261   324A      4.194617
     325A      4.242109   326A      4.253485   327A      4.441848
     328A      4.546689   329A      4.579137   330A      4.867500
     331A      4.976002   332A      5.057712   333A      5.261571
     334A      5.316398   335A      5.630057   336A      5.691184
     337A      5.827008   338A      5.952491   339A      6.283687
     340A      6.306748   341A      6.453625   342A      6.631059
     343A     18.125576   344A     18.207838   345A     19.017433
     346A     19.342859   347A     25.286922   348A     25.374642

    Final Occupation by Irrep:
              A
    DOCC [    21 ]

  @DF-RHF Final Energy:  -262.63994485183889

   => Energetics <=

    Nuclear Repulsion Energy =            212.5517311104853491
    One-Electron Energy =                -775.4594096413056832
    Two-Electron Energy =                 300.2677336789814717
    Total Energy =                       -262.6399448518388908

Computation Completed


Properties will be evaluated at   0.000000,   0.000000,   0.000000 [a0]

Properties computed using the SCF density matrix

  Nuclear Dipole Moment: [e a0]
     X:    55.0814      Y:    41.1737      Z:    17.9034

  Electronic Dipole Moment: [e a0]
     X:   -55.0814      Y:   -41.1737      Z:   -17.9034

  Dipole Moment: [e a0]
     X:     0.0000      Y:     0.0000      Z:    -0.0000     Total:     0.0000

  Dipole Moment: [D]
     X:     0.0000      Y:     0.0000      Z:    -0.0000     Total:     0.0000


*** tstop() called on atl1-1-01-013-15-r.pace.gatech.edu at Mon Nov 29 16:11:03 2021
Module time:
	user time   =      15.16 seconds =       0.25 minutes
	system time =       0.46 seconds =       0.01 minutes
	total time  =          8 seconds =       0.13 minutes
Total time:
	user time   =      38.71 seconds =       0.65 minutes
	system time =       1.41 seconds =       0.02 minutes
	total time  =         21 seconds =       0.35 minutes

  //>>>>>>>>>>>>>>>>>>>>>>>>>>>>>>>>>>>//
  //            Monomer B HF           //
  //<<<<<<<<<<<<<<<<<<<<<<<<<<<<<<<<<<<//


*** tstart() called on atl1-1-01-013-15-r.pace.gatech.edu
*** at Mon Nov 29 16:11:03 2021

   => Loading Basis Set <=

    Name: AUG-CC-PVDZ
    Role: ORBITAL
    Keyword: BASIS
    atoms 1-2, 11-12  entry N          line   218 file /storage/home/hhive1/csargent30/data/miniconda3/envs/psi4/share/psi4/basis/aug-cc-pvdz.gbs
    atoms 3-6, 13-16  entry H          line    40 file /storage/home/hhive1/csargent30/data/miniconda3/envs/psi4/share/psi4/basis/aug-cc-pvdz.gbs
    atoms 7-10, 17-20 entry C          line   182 file /storage/home/hhive1/csargent30/data/miniconda3/envs/psi4/share/psi4/basis/aug-cc-pvdz.gbs


         ---------------------------------------------------------
                                   SCF
               by Justin Turney, Rob Parrish, Andy Simmonett
                          and Daniel G. A. Smith
                              RHF Reference
                        2 Threads,   6675 MiB Core
         ---------------------------------------------------------

  ==> Geometry <==

    Molecular point group: c1
    Full point group: C1

    Geometry (in Bohr), charge = 0, multiplicity = 1:

       Center              X                  Y                   Z               Mass
    ------------   -----------------  -----------------  -----------------  -----------------
      Gh(N)          -1.330847580000     0.980326580000     0.426270370000    14.003074004430
      Gh(N)           3.953773330000     0.980326580000     0.426270370000    14.003074004430
      Gh(H)           3.567136740000     4.352185690000    -0.942309730000     1.007825032230
      Gh(H)          -0.944210980000     4.352185690000    -0.942309730000     1.007825032230
      Gh(H)          -0.944210980000    -2.391532530000     1.794850470000     1.007825032230
      Gh(H)           3.567136740000    -2.391532530000     1.794850470000     1.007825032230
      Gh(C)           2.622925760000     2.940979740000    -0.426270370000    12.000000000000
      Gh(C)           0.000000000000     2.940979740000    -0.426270370000    12.000000000000
      Gh(C)           0.000000000000    -0.980326580000     1.278811120000    12.000000000000
      Gh(C)           2.622925760000    -0.980326580000     1.278811120000    12.000000000000
         N           -1.330847580000   -32.185500760000    28.644416770000    14.003074004430
         N            3.953773330000   -32.185500760000    28.644416770000    14.003074004430
         H            3.567136740000   -28.813641650000    27.275836670000     1.007825032230
         H           -0.944210980000   -28.813641650000    27.275836670000     1.007825032230
         H           -0.944210980000   -35.557359870000    30.012996870000     1.007825032230
         H            3.567136740000   -35.557359870000    30.012996870000     1.007825032230
         C            2.622925760000   -30.224847600000    27.791876020000    12.000000000000
         C            0.000000000000   -30.224847600000    27.791876020000    12.000000000000
         C            0.000000000000   -34.146153920000    29.496957520000    12.000000000000
         C            2.622925760000   -34.146153920000    29.496957520000    12.000000000000

  Running in c1 symmetry.

  Rotational constants: A =      0.06942  B =      0.00040  C =      0.00040 [cm^-1]
  Rotational constants: A =   2081.03430  B =     12.08512  C =     12.03316 [MHz]
  Nuclear repulsion =  212.551731042300503

  Charge       = 0
  Multiplicity = 1
  Electrons    = 42
  Nalpha       = 21
  Nbeta        = 21

  ==> Algorithm <==

  SCF Algorithm Type is DF.
  DIIS enabled.
  MOM disabled.
  Fractional occupation disabled.
  Guess Type is SAD.
  Energy threshold   = 1.00e-10
  Density threshold  = 1.00e-10
  Integral threshold = 1.00e-12

  ==> Primary Basis <==

  Basis Set: AUG-CC-PVDZ
    Blend: AUG-CC-PVDZ
    Number of shells: 148
    Number of basis functions: 348
    Number of Cartesian functions: 372
    Spherical Harmonics?: true
    Max angular momentum: 2

   => Loading Basis Set <=

    Name: (AUG-CC-PVDZ AUX)
    Role: JKFIT
    Keyword: DF_BASIS_SCF
    atoms 1-2, 11-12  entry N          line   212 file /storage/home/hhive1/csargent30/data/miniconda3/envs/psi4/share/psi4/basis/aug-cc-pvdz-jkfit.gbs
    atoms 3-6, 13-16  entry H          line    70 file /storage/home/hhive1/csargent30/data/miniconda3/envs/psi4/share/psi4/basis/aug-cc-pvdz-jkfit.gbs
    atoms 7-10, 17-20 entry C          line   154 file /storage/home/hhive1/csargent30/data/miniconda3/envs/psi4/share/psi4/basis/aug-cc-pvdz-jkfit.gbs

  ==> Integral Setup <==

  ==> DiskDFJK: Density-Fitted J/K Matrices <==

    J tasked:                  Yes
    K tasked:                  Yes
    wK tasked:                  No
    OpenMP threads:              2
    Integrals threads:           2
    Memory [MiB]:             5006
    Algorithm:                Core
    Integral Cache:           LOAD
    Schwarz Cutoff:          1E-12
    Fitting Condition:       1E-10

   => Auxiliary Basis Set <=

  Basis Set: (AUG-CC-PVDZ AUX)
    Blend: AUG-CC-PVDZ-JKFIT
    Number of shells: 432
    Number of basis functions: 1288
    Number of Cartesian functions: 1492
    Spherical Harmonics?: true
    Max angular momentum: 3

  Minimum eigenvalue in the overlap matrix is 9.4898708957E-06.
  Reciprocal condition number of the overlap matrix is 7.4017881689E-07.
    Using symmetric orthogonalization.

  ==> Pre-Iterations <==

  SCF Guess: Superposition of Atomic Densities via on-the-fly atomic UHF (no occupation information).

   -------------------------
    Irrep   Nso     Nmo
   -------------------------
     A        348     348
   -------------------------
    Total     348     348
   -------------------------

  ==> Iterations <==

                           Total Energy        Delta E     RMS |[F,P]|

   @DF-RHF iter SAD:  -262.32523125084094   -2.62325e+02   0.00000e+00
   @DF-RHF iter   1:  -262.53940798110966   -2.14177e-01   1.11985e-03 DIIS
   @DF-RHF iter   2:  -262.62878837333102   -8.93804e-02   4.10664e-04 DIIS
   @DF-RHF iter   3:  -262.63862291783272   -9.83454e-03   1.28248e-04 DIIS
   @DF-RHF iter   4:  -262.63984767110537   -1.22475e-03   3.77599e-05 DIIS
   @DF-RHF iter   5:  -262.63993727156731   -8.96005e-05   7.55558e-06 DIIS
   @DF-RHF iter   6:  -262.63994382182710   -6.55026e-06   2.45264e-06 DIIS
   @DF-RHF iter   7:  -262.63994477420090   -9.52374e-07   6.40130e-07 DIIS
   @DF-RHF iter   8:  -262.63994484808882   -7.38879e-08   9.91693e-08 DIIS
   @DF-RHF iter   9:  -262.63994485007487   -1.98605e-09   1.88228e-08 DIIS
   @DF-RHF iter  10:  -262.63994485014541   -7.05427e-11   3.19151e-09 DIIS
   @DF-RHF iter  11:  -262.63994485014803   -2.61480e-12   5.22317e-10 DIIS
   @DF-RHF iter  12:  -262.63994485014746    5.68434e-13   9.54358e-11 DIIS
  Energy and wave function converged.


  ==> Post-Iterations <==

    Orbital Energies [Eh]
    ---------------------

    Doubly Occupied:

       1A    -15.598072     2A    -15.598053     3A    -11.274239
       4A    -11.274194     5A    -11.272975     6A    -11.272969
       7A     -1.313347     8A     -1.224176     9A     -1.076803
      10A     -0.922662    11A     -0.919282    12A     -0.760637
      13A     -0.738402    14A     -0.706214    15A     -0.647687
      16A     -0.580711    17A     -0.574369    18A     -0.497113
      19A     -0.434288    20A     -0.415855    21A     -0.359924

    Virtual:

      22A      0.022259    23A      0.034497    24A      0.039328
      25A      0.040739    26A      0.041010    27A      0.048384
      28A      0.058591    29A      0.058676    30A      0.067113
      31A      0.079507    32A      0.084868    33A      0.099419
      34A      0.100948    35A      0.103819    36A      0.108340
      37A      0.108681    38A      0.114201    39A      0.114951
      40A      0.122322    41A      0.123776    42A      0.125322
      43A      0.125409    44A      0.128661    45A      0.130770
      46A      0.132889    47A      0.133972    48A      0.151930
      49A      0.152855    50A      0.158199    51A      0.159170
      52A      0.161084    53A      0.161326    54A      0.163914
      55A      0.175179    56A      0.176568    57A      0.186918
      58A      0.197629    59A      0.203728    60A      0.203908
      61A      0.206486    62A      0.212538    63A      0.222205
      64A      0.233440    65A      0.239265    66A      0.250517
      67A      0.255047    68A      0.267756    69A      0.270603
      70A      0.278057    71A      0.287812    72A      0.293207
      73A      0.295749    74A      0.302144    75A      0.314832
      76A      0.320457    77A      0.320464    78A      0.327983
      79A      0.331126    80A      0.343946    81A      0.355428
      82A      0.357908    83A      0.364661    84A      0.380323
      85A      0.382583    86A      0.385459    87A      0.398891
      88A      0.401098    89A      0.409895    90A      0.419096
      91A      0.424772    92A      0.425453    93A      0.433925
      94A      0.437212    95A      0.441756    96A      0.452092
      97A      0.460481    98A      0.460927    99A      0.471483
     100A      0.475910   101A      0.478643   102A      0.492140
     103A      0.504862   104A      0.507644   105A      0.514914
     106A      0.523590   107A      0.524547   108A      0.528668
     109A      0.535554   110A      0.554577   111A      0.557669
     112A      0.561337   113A      0.564318   114A      0.570535
     115A      0.581728   116A      0.587535   117A      0.591506
     118A      0.593799   119A      0.595833   120A      0.608929
     121A      0.614966   122A      0.619985   123A      0.636189
     124A      0.643517   125A      0.644321   126A      0.649178
     127A      0.651313   128A      0.679236   129A      0.685136
     130A      0.685140   131A      0.687758   132A      0.689932
     133A      0.690342   134A      0.694828   135A      0.703829
     136A      0.719711   137A      0.728215   138A      0.746558
     139A      0.746612   140A      0.754817   141A      0.766965
     142A      0.775505   143A      0.781406   144A      0.793455
     145A      0.799815   146A      0.802710   147A      0.810918
     148A      0.811801   149A      0.819016   150A      0.824576
     151A      0.831071   152A      0.847513   153A      0.847887
     154A      0.849009   155A      0.868429   156A      0.880544
     157A      0.886410   158A      0.887972   159A      0.894682
     160A      0.905928   161A      0.928936   162A      0.929272
     163A      0.939466   164A      0.947515   165A      0.949307
     166A      0.970603   167A      0.976760   168A      0.986462
     169A      0.996652   170A      0.998908   171A      1.013015
     172A      1.032242   173A      1.033370   174A      1.046753
     175A      1.051194   176A      1.076088   177A      1.089381
     178A      1.090102   179A      1.100445   180A      1.122199
     181A      1.124044   182A      1.130487   183A      1.134362
     184A      1.140089   185A      1.158740   186A      1.168412
     187A      1.170500   188A      1.173565   189A      1.192032
     190A      1.193065   191A      1.200298   192A      1.222140
     193A      1.235416   194A      1.238804   195A      1.250852
     196A      1.307382   197A      1.309674   198A      1.318086
     199A      1.326237   200A      1.329436   201A      1.331148
     202A      1.346633   203A      1.389037   204A      1.414282
     205A      1.448214   206A      1.451526   207A      1.455284
     208A      1.478958   209A      1.486137   210A      1.487030
     211A      1.488075   212A      1.499211   213A      1.502846
     214A      1.518252   215A      1.572686   216A      1.574192
     217A      1.587836   218A      1.635982   219A      1.640505
     220A      1.648219   221A      1.659065   222A      1.676552
     223A      1.697892   224A      1.716991   225A      1.746597
     226A      1.755104   227A      1.783762   228A      1.815727
     229A      1.893323   230A      1.916137   231A      1.964829
     232A      1.987674   233A      2.031202   234A      2.070052
     235A      2.091548   236A      2.101028   237A      2.102590
     238A      2.119269   239A      2.142953   240A      2.156501
     241A      2.159015   242A      2.163355   243A      2.190488
     244A      2.193301   245A      2.194686   246A      2.200380
     247A      2.202410   248A      2.227626   249A      2.234601
     250A      2.241028   251A      2.249485   252A      2.309840
     253A      2.312761   254A      2.319373   255A      2.355229
     256A      2.384631   257A      2.419035   258A      2.430957
     259A      2.435239   260A      2.437991   261A      2.438977
     262A      2.472502   263A      2.486550   264A      2.498146
     265A      2.519379   266A      2.522395   267A      2.524893
     268A      2.545821   269A      2.568153   270A      2.584766
     271A      2.592198   272A      2.606266   273A      2.625798
     274A      2.665224   275A      2.675409   276A      2.686395
     277A      2.713985   278A      2.716723   279A      2.718591
     280A      2.726478   281A      2.767761   282A      2.844014
     283A      2.865761   284A      2.903862   285A      2.939196
     286A      2.947053   287A      2.955578   288A      2.973168
     289A      3.001855   290A      3.017872   291A      3.032186
     292A      3.058157   293A      3.065055   294A      3.094137
     295A      3.113695   296A      3.220316   297A      3.245556
     298A      3.255980   299A      3.284880   300A      3.289509
     301A      3.321788   302A      3.337569   303A      3.340314
     304A      3.348486   305A      3.351210   306A      3.366140
     307A      3.412458   308A      3.413367   309A      3.470612
     310A      3.501813   311A      3.514920   312A      3.521223
     313A      3.590655   314A      3.604297   315A      3.605504
     316A      3.627769   317A      3.700344   318A      3.818783
     319A      3.830547   320A      3.940829   321A      3.968955
     322A      3.977236   323A      4.011261   324A      4.194617
     325A      4.242109   326A      4.253485   327A      4.441848
     328A      4.546689   329A      4.579137   330A      4.867500
     331A      4.976002   332A      5.057712   333A      5.261571
     334A      5.316398   335A      5.630057   336A      5.691184
     337A      5.827008   338A      5.952491   339A      6.283687
     340A      6.306748   341A      6.453625   342A      6.631059
     343A     18.125576   344A     18.207838   345A     19.017433
     346A     19.342859   347A     25.286922   348A     25.374642

    Final Occupation by Irrep:
              A
    DOCC [    21 ]

  @DF-RHF Final Energy:  -262.63994485014746

   => Energetics <=

    Nuclear Repulsion Energy =            212.5517310423005028
    One-Electron Energy =                -775.4594095041320543
    Two-Electron Energy =                 300.2677336116840934
    Total Energy =                       -262.6399448501474581

Computation Completed


Properties will be evaluated at   0.000000,   0.000000,   0.000000 [a0]

Properties computed using the SCF density matrix

  Nuclear Dipole Moment: [e a0]
     X:    55.0814      Y: -1351.7910      Z:  1203.0655

  Electronic Dipole Moment: [e a0]
     X:   -55.0814      Y:  1351.7910      Z: -1203.0655

  Dipole Moment: [e a0]
     X:     0.0000      Y:    -0.0000      Z:     0.0000     Total:     0.0000

  Dipole Moment: [D]
     X:     0.0000      Y:    -0.0000      Z:     0.0000     Total:     0.0000


*** tstop() called on atl1-1-01-013-15-r.pace.gatech.edu at Mon Nov 29 16:11:12 2021
Module time:
	user time   =      15.12 seconds =       0.25 minutes
	system time =       0.49 seconds =       0.01 minutes
	total time  =          9 seconds =       0.15 minutes
Total time:
	user time   =      53.84 seconds =       0.90 minutes
	system time =       1.90 seconds =       0.03 minutes
	total time  =         30 seconds =       0.50 minutes
  Constructing Basis Sets for SAPT...

   => Loading Basis Set <=

    Name: (AUG-CC-PVDZ AUX)
    Role: RIFIT
    Keyword: DF_BASIS_SAPT
    atoms 1-2, 11-12  entry N          line   158 file /storage/home/hhive1/csargent30/data/miniconda3/envs/psi4/share/psi4/basis/aug-cc-pvdz-ri.gbs
    atoms 3-6, 13-16  entry H          line    30 file /storage/home/hhive1/csargent30/data/miniconda3/envs/psi4/share/psi4/basis/aug-cc-pvdz-ri.gbs
    atoms 7-10, 17-20 entry C          line   112 file /storage/home/hhive1/csargent30/data/miniconda3/envs/psi4/share/psi4/basis/aug-cc-pvdz-ri.gbs


  //>>>>>>>>>>>>>>>>>>>>>>>>>>>>>>>>>>>//
  //               SAPT0               //
  //<<<<<<<<<<<<<<<<<<<<<<<<<<<<<<<<<<<//


*** tstart() called on atl1-1-01-013-15-r.pace.gatech.edu
*** at Mon Nov 29 16:11:12 2021

        SAPT0
    Ed Hohenstein
     6 June 2009

      Orbital Information
  --------------------------
    NSO        =       348
    NMO        =       348
    NRI        =      1048
    NOCC A     =        21
    NOCC B     =        21
    FOCC A     =         6
    FOCC B     =         6
    NVIR A     =       327
    NVIR B     =       327

    Elst10,r            =     0.000002121158 [Eh]
    Exch10              =     0.000000000000 [Eh]
    Exch10 (S^2)        =     0.000000000000 [Eh]

    Iter     Energy [mEh]          dE [mEh]         Residual      Time [s]
       1      -0.00000149       0.000001491       0.013693344             1
       2      -0.00000132      -0.000000167       0.002852614             1
       3      -0.00000145       0.000000128       0.001310181             1
       4      -0.00000147       0.000000023       0.000551692             2
       5      -0.00000146      -0.000000011       0.000183911             2
       6      -0.00000146       0.000000000       0.000057617             3
       7      -0.00000146       0.000000000       0.000023399             3
       8      -0.00000146       0.000000000       0.000005050             3
       9      -0.00000146      -0.000000000       0.000001182             4
      10      -0.00000146       0.000000000       0.000000485             4

    CHF Iterations converged


    Iter     Energy [mEh]          dE [mEh]         Residual      Time [s]
       1      -0.00000149       0.000001491       0.013693344             0
       2      -0.00000132      -0.000000167       0.002852614             1
       3      -0.00000145       0.000000128       0.001310181             1
       4      -0.00000147       0.000000023       0.000551692             1
       5      -0.00000146      -0.000000011       0.000183911             2
       6      -0.00000146       0.000000000       0.000057617             2
       7      -0.00000146       0.000000000       0.000023399             3
       8      -0.00000146       0.000000000       0.000005050             3
       9      -0.00000146      -0.000000000       0.000001182             3
      10      -0.00000146       0.000000000       0.000000485             4

    CHF Iterations converged

    Ind20,r (A<-B)      =    -0.000000001463 [Eh]
    Ind20,r (B<-A)      =    -0.000000001463 [Eh]
    Ind20,r             =    -0.000000002927 [Eh]
    Exch-Ind20,r (A<-B) =     0.000000000000 [Eh]
    Exch-Ind20,r (B<-A) =     0.000000000000 [Eh]
    Exch-Ind20,r        =     0.000000000000 [Eh]
    Disp20              =    -0.000000288789 [Eh]
    Disp20 (SS)         =    -0.000000144395 [Eh]
    Disp20 (OS)         =    -0.000000144395 [Eh]
    Exch-Disp20         =     0.000000000000 [Eh]
    Exch-Disp20 (SS)    =     0.000000000000 [Eh]
    Exch-Disp20 (OS)    =     0.000000000000 [Eh]

    SAPT Results
  --------------------------------------------------------------------------------------------------------
    Electrostatics                  0.00212116 [mEh]       0.00133105 [kcal/mol]       0.00556910 [kJ/mol]
      Elst10,r                      0.00212116 [mEh]       0.00133105 [kcal/mol]       0.00556910 [kJ/mol]

    Exchange                        0.00000000 [mEh]       0.00000000 [kcal/mol]       0.00000000 [kJ/mol]
      Exch10                        0.00000000 [mEh]       0.00000000 [kcal/mol]       0.00000000 [kJ/mol]
      Exch10(S^2)                   0.00000000 [mEh]       0.00000000 [kcal/mol]       0.00000000 [kJ/mol]

    Induction                      -0.00000550 [mEh]      -0.00000345 [kcal/mol]      -0.00001445 [kJ/mol]
      Ind20,r                      -0.00000293 [mEh]      -0.00000184 [kcal/mol]      -0.00000768 [kJ/mol]
      Exch-Ind20,r                  0.00000000 [mEh]       0.00000000 [kcal/mol]       0.00000000 [kJ/mol]
      delta HF,r (2)               -0.00000258 [mEh]      -0.00000162 [kcal/mol]      -0.00000676 [kJ/mol]

    Dispersion                     -0.00028879 [mEh]      -0.00018122 [kcal/mol]      -0.00075822 [kJ/mol]
      Disp20                       -0.00028879 [mEh]      -0.00018122 [kcal/mol]      -0.00075822 [kJ/mol]
      Exch-Disp20                   0.00000000 [mEh]       0.00000000 [kcal/mol]       0.00000000 [kJ/mol]
      Disp20 (SS)                  -0.00014439 [mEh]      -0.00009061 [kcal/mol]      -0.00037911 [kJ/mol]
      Disp20 (OS)                  -0.00014439 [mEh]      -0.00009061 [kcal/mol]      -0.00037911 [kJ/mol]
      Exch-Disp20 (SS)              0.00000000 [mEh]       0.00000000 [kcal/mol]       0.00000000 [kJ/mol]
      Exch-Disp20 (OS)              0.00000000 [mEh]       0.00000000 [kcal/mol]       0.00000000 [kJ/mol]

  Total HF                          0.00211566 [mEh]       0.00132759 [kcal/mol]       0.00555465 [kJ/mol]
  Total SAPT0                       0.00182687 [mEh]       0.00114638 [kcal/mol]       0.00479644 [kJ/mol]

  Special recipe for scaled SAPT0 (see Manual):
    Electrostatics sSAPT0           0.00212116 [mEh]       0.00133105 [kcal/mol]       0.00556910 [kJ/mol]
    Exchange sSAPT0                 0.00000000 [mEh]       0.00000000 [kcal/mol]       0.00000000 [kJ/mol]
    Induction sSAPT0               -0.00000550 [mEh]      -0.00000345 [kcal/mol]      -0.00001445 [kJ/mol]
    Dispersion sSAPT0              -0.00028879 [mEh]      -0.00018122 [kcal/mol]      -0.00075822 [kJ/mol]
  Total sSAPT0                      0.00182687 [mEh]       0.00114638 [kcal/mol]       0.00479644 [kJ/mol]
  --------------------------------------------------------------------------------------------------------

*** tstop() called on atl1-1-01-013-15-r.pace.gatech.edu at Mon Nov 29 16:11:45 2021
Module time:
	user time   =      37.21 seconds =       0.62 minutes
	system time =       8.49 seconds =       0.14 minutes
	total time  =         33 seconds =       0.55 minutes
Total time:
	user time   =      91.32 seconds =       1.52 minutes
	system time =      10.40 seconds =       0.17 minutes
	total time  =         63 seconds =       1.05 minutes


Warning! sapt0 does not have an associated derived wavefunction.The returned wavefunction is the dimer SCF wavefunction.


    Psi4 stopped on: Monday, 29 November 2021 04:11PM
    Psi4 wall time for execution: 0:01:03.60

*** Psi4 exiting successfully. Buy a developer a beer!
