
    -----------------------------------------------------------------------
          Psi4: An Open-Source Ab Initio Electronic Structure Package
                               Psi4 1.4.1 release

                         Git: Rev {HEAD} cd00f19 


    D. G. A. Smith, L. A. Burns, A. C. Simmonett, R. M. Parrish,
    M. C. Schieber, R. Galvelis, P. Kraus, H. Kruse, R. Di Remigio,
    A. Alenaizan, A. M. James, S. Lehtola, J. P. Misiewicz, M. Scheurer,
    R. A. Shaw, J. B. Schriber, Y. Xie, Z. L. Glick, D. A. Sirianni,
    J. S. O'Brien, J. M. Waldrop, A. Kumar, E. G. Hohenstein,
    B. P. Pritchard, B. R. Brooks, H. F. Schaefer III, A. Yu. Sokolov,
    K. Patkowski, A. E. DePrince III, U. Bozkaya, R. A. King,
    F. A. Evangelista, J. M. Turney, T. D. Crawford, C. D. Sherrill,
    J. Chem. Phys. 152(18) 184108 (2020). https://doi.org/10.1063/5.0006002

                            Additional Code Authors
    E. T. Seidl, C. L. Janssen, E. F. Valeev, M. L. Leininger,
    J. F. Gonthier, R. M. Richard, H. R. McAlexander, M. Saitow, X. Wang,
    P. Verma, and M. H. Lechner

             Previous Authors, Complete List of Code Contributors,
                       and Citations for Specific Modules
    https://github.com/psi4/psi4/blob/master/codemeta.json
    https://github.com/psi4/psi4/graphs/contributors
    http://psicode.org/psi4manual/master/introduction.html#citing-psifour

    -----------------------------------------------------------------------


    Psi4 started on: Monday, 29 November 2021 04:10PM

    Process ID: 14399
    Host:       atl1-1-01-015-20-r.pace.gatech.edu
    PSIDATADIR: /storage/home/hhive1/csargent30/data/miniconda3/envs/psi4/share/psi4
    Memory:     500.0 MiB
    Threads:    2
    
  ==> Input File <==

--------------------------------------------------------------------------
# PSI4 file produced by CrystaLattE

# Generated from:               pyrazine.xyz
# Psithon input for N-mer:      2mer-0+79
# Number of atoms per monomer:  [10, 10]
# Number of replicas:           4
# COM priority:                 6.296418252424e-05
# Minimum COM separations:      13.302 
# Separation priority:          1.748477005105e-04
# Minimum monomer separations:  9.463 
# Cutoff priority:              9.777171507377e-06
# Nuclear repulsion energy:     495.555434485065

memory 7 GB

molecule Dimer_0_79 {
  N           -1.33084758       0.98032658       0.42627037 
  N            3.95377333       0.98032658       0.42627037 
  H            3.56713674       4.35218569      -0.94230973 
  H           -0.94421098       4.35218569      -0.94230973 
  H           -0.94421098      -2.39153253       1.79485047 
  H            3.56713674      -2.39153253       1.79485047 
  C            2.62292576       2.94097974      -0.42627037 
  C            0.00000000       2.94097974      -0.42627037 
  C            0.00000000      -0.98032658       1.27881112 
  C            2.62292576      -0.98032658       1.27881112 
--
  N          -18.95329959     -10.07494920      14.53534357 
  N          -13.66867868     -10.07494920      14.53534357 
  H          -14.05531527      -6.70309009      13.16676347 
  H          -18.56666299      -6.70309009      13.16676347 
  H          -18.56666299     -13.44680831      15.90392367 
  H          -14.05531527     -13.44680831      15.90392367 
  C          -14.99952625      -8.11429604      13.68280282 
  C          -17.62245201      -8.11429604      13.68280282 
  C          -17.62245201     -12.03560236      15.38788432 
  C          -14.99952625     -12.03560236      15.38788432 
units = au
no_com
no_reorient
}

set {
  e_convergence 10
  d_convergence 10
  scf_type df
  mp2_type df
  cc_type df
  freeze_core true
}

energy('sapt0/aug-cc-pvdz')

--------------------------------------------------------------------------

  Memory set to   6.519 GiB by Python driver.

Scratch directory: /tmp/

Scratch directory: /tmp/

  //>>>>>>>>>>>>>>>>>>>>>>>>>>>>>>>>>>>//
  //              Dimer HF             //
  //<<<<<<<<<<<<<<<<<<<<<<<<<<<<<<<<<<<//


*** tstart() called on atl1-1-01-015-20-r.pace.gatech.edu
*** at Mon Nov 29 16:10:41 2021

   => Loading Basis Set <=

    Name: AUG-CC-PVDZ
    Role: ORBITAL
    Keyword: BASIS
    atoms 1-2, 11-12  entry N          line   218 file /storage/home/hhive1/csargent30/data/miniconda3/envs/psi4/share/psi4/basis/aug-cc-pvdz.gbs 
    atoms 3-6, 13-16  entry H          line    40 file /storage/home/hhive1/csargent30/data/miniconda3/envs/psi4/share/psi4/basis/aug-cc-pvdz.gbs 
    atoms 7-10, 17-20 entry C          line   182 file /storage/home/hhive1/csargent30/data/miniconda3/envs/psi4/share/psi4/basis/aug-cc-pvdz.gbs 


         ---------------------------------------------------------
                                   SCF
               by Justin Turney, Rob Parrish, Andy Simmonett
                          and Daniel G. A. Smith
                              RHF Reference
                        2 Threads,   6675 MiB Core
         ---------------------------------------------------------

  ==> Geometry <==

    Molecular point group: c1
    Full point group: C1

    Geometry (in Bohr), charge = 0, multiplicity = 1:

       Center              X                  Y                   Z               Mass       
    ------------   -----------------  -----------------  -----------------  -----------------
         N           -1.330847580000     0.980326580000     0.426270370000    14.003074004430
         N            3.953773330000     0.980326580000     0.426270370000    14.003074004430
         H            3.567136740000     4.352185690000    -0.942309730000     1.007825032230
         H           -0.944210980000     4.352185690000    -0.942309730000     1.007825032230
         H           -0.944210980000    -2.391532530000     1.794850470000     1.007825032230
         H            3.567136740000    -2.391532530000     1.794850470000     1.007825032230
         C            2.622925760000     2.940979740000    -0.426270370000    12.000000000000
         C            0.000000000000     2.940979740000    -0.426270370000    12.000000000000
         C            0.000000000000    -0.980326580000     1.278811120000    12.000000000000
         C            2.622925760000    -0.980326580000     1.278811120000    12.000000000000
         N          -18.953299590000   -10.074949200000    14.535343570000    14.003074004430
         N          -13.668678680000   -10.074949200000    14.535343570000    14.003074004430
         H          -14.055315270000    -6.703090090000    13.166763470000     1.007825032230
         H          -18.566662990000    -6.703090090000    13.166763470000     1.007825032230
         H          -18.566662990000   -13.446808310000    15.903923670000     1.007825032230
         H          -14.055315270000   -13.446808310000    15.903923670000     1.007825032230
         C          -14.999526250000    -8.114296040000    13.682802820000    12.000000000000
         C          -17.622452010000    -8.114296040000    13.682802820000    12.000000000000
         C          -17.622452010000   -12.035602360000    15.387884320000    12.000000000000
         C          -14.999526250000   -12.035602360000    15.387884320000    12.000000000000

  Running in c1 symmetry.

  Rotational constants: A =      0.07558  B =      0.00128  C =      0.00127 [cm^-1]
  Rotational constants: A =   2265.73136  B =     38.30466  C =     38.00428 [MHz]
  Nuclear repulsion =  495.555434414580418

  Charge       = 0
  Multiplicity = 1
  Electrons    = 84
  Nalpha       = 42
  Nbeta        = 42

  ==> Algorithm <==

  SCF Algorithm Type is DF.
  DIIS enabled.
  MOM disabled.
  Fractional occupation disabled.
  Guess Type is SAD.
  Energy threshold   = 1.00e-10
  Density threshold  = 1.00e-10
  Integral threshold = 1.00e-12

  ==> Primary Basis <==

  Basis Set: AUG-CC-PVDZ
    Blend: AUG-CC-PVDZ
    Number of shells: 148
    Number of basis functions: 348
    Number of Cartesian functions: 372
    Spherical Harmonics?: true
    Max angular momentum: 2

   => Loading Basis Set <=

    Name: (AUG-CC-PVDZ AUX)
    Role: JKFIT
    Keyword: DF_BASIS_SCF
    atoms 1-2, 11-12  entry N          line   212 file /storage/home/hhive1/csargent30/data/miniconda3/envs/psi4/share/psi4/basis/aug-cc-pvdz-jkfit.gbs 
    atoms 3-6, 13-16  entry H          line    70 file /storage/home/hhive1/csargent30/data/miniconda3/envs/psi4/share/psi4/basis/aug-cc-pvdz-jkfit.gbs 
    atoms 7-10, 17-20 entry C          line   154 file /storage/home/hhive1/csargent30/data/miniconda3/envs/psi4/share/psi4/basis/aug-cc-pvdz-jkfit.gbs 

  ==> Integral Setup <==

  ==> DiskDFJK: Density-Fitted J/K Matrices <==

    J tasked:                  Yes
    K tasked:                  Yes
    wK tasked:                  No
    OpenMP threads:              2
    Integrals threads:           2
    Memory [MiB]:             5006
    Algorithm:                Core
    Integral Cache:           SAVE
    Schwarz Cutoff:          1E-12
    Fitting Condition:       1E-10

   => Auxiliary Basis Set <=

  Basis Set: (AUG-CC-PVDZ AUX)
    Blend: AUG-CC-PVDZ-JKFIT
    Number of shells: 432
    Number of basis functions: 1288
    Number of Cartesian functions: 1492
    Spherical Harmonics?: true
    Max angular momentum: 3

  Minimum eigenvalue in the overlap matrix is 9.3363402097E-06.
  Reciprocal condition number of the overlap matrix is 7.2818911147E-07.
    Using symmetric orthogonalization.

  ==> Pre-Iterations <==

  SCF Guess: Superposition of Atomic Densities via on-the-fly atomic UHF (no occupation information).

   -------------------------
    Irrep   Nso     Nmo    
   -------------------------
     A        348     348 
   -------------------------
    Total     348     348
   -------------------------

  ==> Iterations <==

                           Total Energy        Delta E     RMS |[F,P]|

   @DF-RHF iter SAD:  -524.65046253446928   -5.24650e+02   0.00000e+00 
   @DF-RHF iter   1:  -525.07885836665753   -4.28396e-01   1.58367e-03 DIIS
   @DF-RHF iter   2:  -525.25761722108393   -1.78759e-01   5.80689e-04 DIIS
   @DF-RHF iter   3:  -525.27728251521671   -1.96653e-02   1.81336e-04 DIIS
   @DF-RHF iter   4:  -525.27973144990210   -2.44893e-03   5.33867e-05 DIIS
   @DF-RHF iter   5:  -525.27991056081532   -1.79111e-04   1.06849e-05 DIIS
   @DF-RHF iter   6:  -525.27992365805312   -1.30972e-05   3.46779e-06 DIIS
   @DF-RHF iter   7:  -525.27992556152958   -1.90348e-06   9.05699e-07 DIIS
   @DF-RHF iter   8:  -525.27992570903177   -1.47502e-07   1.52727e-07 DIIS
   @DF-RHF iter   9:  -525.27992571295067   -3.91890e-09   7.18271e-08 DIIS
   @DF-RHF iter  10:  -525.27992571336381   -4.13138e-10   1.84017e-08 DIIS
   @DF-RHF iter  11:  -525.27992571341008   -4.62705e-11   3.15389e-09 DIIS
   @DF-RHF iter  12:  -525.27992571341235   -2.27374e-12   1.62219e-09 DIIS
   @DF-RHF iter  13:  -525.27992571341269   -3.41061e-13   3.57471e-10 DIIS
   @DF-RHF iter  14:  -525.27992571341201    6.82121e-13   1.15546e-10 DIIS
   @DF-RHF iter  15:  -525.27992571341258   -5.68434e-13   5.54764e-11 DIIS
  Energy and wave function converged.


  ==> Post-Iterations <==

    Orbital Energies [Eh]
    ---------------------

    Doubly Occupied:                                                      

       1A    -15.598073     2A    -15.598073     3A    -15.598033  
       4A    -15.598033     5A    -11.274224     6A    -11.274224  
       7A    -11.274169     8A    -11.274169     9A    -11.272969  
      10A    -11.272969    11A    -11.272936    12A    -11.272936  
      13A     -1.313334    14A     -1.313334    15A     -1.224165  
      16A     -1.224165    17A     -1.076783    18A     -1.076782  
      19A     -0.922646    20A     -0.922645    21A     -0.919260  
      22A     -0.919260    23A     -0.760621    24A     -0.760620  
      25A     -0.738377    26A     -0.738376    27A     -0.706198  
      28A     -0.706198    29A     -0.647666    30A     -0.647664  
      31A     -0.580690    32A     -0.580689    33A     -0.574356  
      34A     -0.574356    35A     -0.497111    36A     -0.497111  
      37A     -0.434282    38A     -0.434282    39A     -0.415848  
      40A     -0.415848    41A     -0.359901    42A     -0.359901  

    Virtual:                                                              

      43A      0.032228    44A      0.035250    45A      0.039103  
      46A      0.041760    47A      0.045990    48A      0.051146  
      49A      0.056645    50A      0.064130    51A      0.067162  
      52A      0.067342    53A      0.099422    54A      0.099428  
      55A      0.100686    56A      0.101200    57A      0.113948  
      58A      0.114045    59A      0.114479    60A      0.114737  
      61A      0.122486    62A      0.123240    63A      0.125872  
      64A      0.126050    65A      0.127930    66A      0.130988  
      67A      0.132956    68A      0.133267    69A      0.157048  
      70A      0.158435    71A      0.159576    72A      0.159805  
      73A      0.162174    74A      0.163276    75A      0.164425  
      76A      0.167940    77A      0.175331    78A      0.178656  
      79A      0.186966    80A      0.192227    81A      0.204000  
      82A      0.204059    83A      0.212549    84A      0.212671  
      85A      0.250515    86A      0.250565    87A      0.267073  
      88A      0.268933    89A      0.277965    90A      0.278274  
      91A      0.287558    92A      0.288391    93A      0.291787  
      94A      0.293292    95A      0.294860    96A      0.299054  
      97A      0.313848    98A      0.316711    99A      0.320478  
     100A      0.321380   101A      0.353966   102A      0.357914  
     103A      0.357952   104A      0.358342   105A      0.364701  
     106A      0.364715   107A      0.382537   108A      0.383028  
     109A      0.398382   110A      0.400125   111A      0.409836  
     112A      0.410311   113A      0.425690   114A      0.426914  
     115A      0.434009   116A      0.434071   117A      0.437130  
     118A      0.438635   119A      0.451504   120A      0.454023  
     121A      0.471113   122A      0.472688   123A      0.492200  
     124A      0.492231   125A      0.504786   126A      0.505552  
     127A      0.514704   128A      0.515518   129A      0.524474  
     130A      0.524804   131A      0.527993   132A      0.530762  
     133A      0.554528   134A      0.554698   135A      0.570436  
     136A      0.570716   137A      0.587468   138A      0.587700  
     139A      0.591358   140A      0.591895   141A      0.593791  
     142A      0.593882   143A      0.608923   144A      0.609067  
     145A      0.642848   146A      0.644052   147A      0.644670  
     148A      0.645026   149A      0.685074   150A      0.685214  
     151A      0.687653   152A      0.687996   153A      0.688983  
     154A      0.689973   155A      0.689988   156A      0.692179  
     157A      0.694593   158A      0.695811   159A      0.703635  
     160A      0.704566   161A      0.746215   162A      0.747595  
     163A      0.754873   164A      0.754874   165A      0.766820  
     166A      0.767239   167A      0.781247   168A      0.782014  
     169A      0.799509   170A      0.800251   171A      0.802595  
     172A      0.803263   173A      0.818965   174A      0.819224  
     175A      0.831090   176A      0.831104   177A      0.847629  
     178A      0.848278   179A      0.880478   180A      0.880764  
     181A      0.886434   182A      0.886534   183A      0.894712  
     184A      0.894730   185A      0.929247   186A      0.929396  
     187A      0.939309   188A      0.939763   189A      0.949124  
     190A      0.949623   191A      0.995853   192A      0.998125  
     193A      0.999063   194A      0.999083   195A      1.013011  
     196A      1.013034   197A      1.033854   198A      1.033936  
     199A      1.051137   200A      1.051419   201A      1.089334  
     202A      1.089490   203A      1.100068   204A      1.101188  
     205A      1.121909   206A      1.123062   207A      1.123957  
     208A      1.124195   209A      1.134153   210A      1.134989  
     211A      1.158508   212A      1.159285   213A      1.173567  
     214A      1.173622   215A      1.235338   216A      1.235685  
     217A      1.238796   218A      1.238943   219A      1.309534  
     220A      1.309949   221A      1.331229   222A      1.331242  
     223A      1.414296   224A      1.414379   225A      1.451497  
     226A      1.451673   227A      1.485831   228A      1.486443  
     229A      1.488088   230A      1.488224   231A      1.498474  
     232A      1.500552   233A      1.502595   234A      1.504047  
     235A      1.518137   236A      1.518709   237A      1.572677  
     238A      1.572742   239A      1.574101   240A      1.574494  
     241A      1.587627   242A      1.588409   243A      1.635831  
     244A      1.636342   245A      1.640493   246A      1.640678  
     247A      1.648197   248A      1.648971   249A      1.676636  
     250A      1.676947   251A      1.716990   252A      1.717016  
     253A      1.746620   254A      1.746631   255A      1.755074  
     256A      1.755285   257A      1.783134   258A      1.785197  
     259A      1.815742   260A      1.815761   261A      1.893318  
     262A      1.893388   263A      1.916158   264A      1.916200  
     265A      1.964848   266A      1.964862   267A      1.987656  
     268A      1.987726   269A      2.031232   270A      2.031247  
     271A      2.091579   272A      2.091584   273A      2.101176  
     274A      2.101246   275A      2.142811   276A      2.143433  
     277A      2.163417   278A      2.163438   279A      2.190493  
     280A      2.190516   281A      2.193576   282A      2.194069  
     283A      2.200443   284A      2.200478   285A      2.202433  
     286A      2.202441   287A      2.227500   288A      2.227823  
     289A      2.312666   290A      2.313085   291A      2.354752  
     292A      2.356306   293A      2.430842   294A      2.431223  
     295A      2.438903   296A      2.439378   297A      2.519316  
     298A      2.519638   299A      2.522428   300A      2.522454  
     301A      2.584610   302A      2.584988   303A      2.606248  
     304A      2.606305   305A      2.665221   306A      2.665272  
     307A      2.675386   308A      2.675462   309A      2.686160  
     310A      2.686955   311A      2.713908   312A      2.714197  
     313A      2.718713   314A      2.718792   315A      2.844018  
     316A      2.844035   317A      2.865756   318A      2.865819  
     319A      2.939189   320A      2.939276   321A      3.001782  
     322A      3.002008   323A      3.017662   324A      3.018293  
     325A      3.032048   326A      3.032367   327A      3.093955  
     328A      3.094428   329A      3.220041   330A      3.222241  
     331A      3.255945   332A      3.256087   333A      3.284739  
     334A      3.285295   335A      3.366030   336A      3.366428  
     337A      3.413339   338A      3.413465   339A      3.514944  
     340A      3.515021   341A      3.590651   342A      3.590784  
     343A      3.627799   344A      3.627823   345A      3.977301  
     346A      3.977485   347A      4.253496   348A      4.253518  

    Final Occupation by Irrep:
              A 
    DOCC [    42 ]

  @DF-RHF Final Energy:  -525.27992571341258

   => Energetics <=

    Nuclear Repulsion Energy =            495.5554344145804180
    One-Electron Energy =               -1691.8241655189917765
    Two-Electron Energy =                 670.9888053909988912
    Total Energy =                       -525.2799257134125810

Computation Completed


Properties will be evaluated at   0.000000,   0.000000,   0.000000 [a0]

Properties computed using the SCF density matrix

  Nuclear Dipole Moment: [e a0]
     X:  -629.9801      Y:  -381.9742      Z:   628.3878

  Electronic Dipole Moment: [e a0]
     X:   629.9801      Y:   381.9742      Z:  -628.3878

  Dipole Moment: [e a0]
     X:     0.0000      Y:     0.0000      Z:    -0.0000     Total:     0.0000

  Dipole Moment: [D]
     X:     0.0000      Y:     0.0000      Z:    -0.0000     Total:     0.0000


*** tstop() called on atl1-1-01-015-20-r.pace.gatech.edu at Mon Nov 29 16:10:56 2021
Module time:
	user time   =      28.49 seconds =       0.47 minutes
	system time =       1.06 seconds =       0.02 minutes
	total time  =         15 seconds =       0.25 minutes
Total time:
	user time   =      28.49 seconds =       0.47 minutes
	system time =       1.06 seconds =       0.02 minutes
	total time  =         15 seconds =       0.25 minutes

  //>>>>>>>>>>>>>>>>>>>>>>>>>>>>>>>>>>>//
  //            Monomer A HF           //
  //<<<<<<<<<<<<<<<<<<<<<<<<<<<<<<<<<<<//


*** tstart() called on atl1-1-01-015-20-r.pace.gatech.edu
*** at Mon Nov 29 16:10:56 2021

   => Loading Basis Set <=

    Name: AUG-CC-PVDZ
    Role: ORBITAL
    Keyword: BASIS
    atoms 1-2, 11-12  entry N          line   218 file /storage/home/hhive1/csargent30/data/miniconda3/envs/psi4/share/psi4/basis/aug-cc-pvdz.gbs 
    atoms 3-6, 13-16  entry H          line    40 file /storage/home/hhive1/csargent30/data/miniconda3/envs/psi4/share/psi4/basis/aug-cc-pvdz.gbs 
    atoms 7-10, 17-20 entry C          line   182 file /storage/home/hhive1/csargent30/data/miniconda3/envs/psi4/share/psi4/basis/aug-cc-pvdz.gbs 


         ---------------------------------------------------------
                                   SCF
               by Justin Turney, Rob Parrish, Andy Simmonett
                          and Daniel G. A. Smith
                              RHF Reference
                        2 Threads,   6675 MiB Core
         ---------------------------------------------------------

  ==> Geometry <==

    Molecular point group: c1
    Full point group: C1

    Geometry (in Bohr), charge = 0, multiplicity = 1:

       Center              X                  Y                   Z               Mass       
    ------------   -----------------  -----------------  -----------------  -----------------
         N           -1.330847580000     0.980326580000     0.426270370000    14.003074004430
         N            3.953773330000     0.980326580000     0.426270370000    14.003074004430
         H            3.567136740000     4.352185690000    -0.942309730000     1.007825032230
         H           -0.944210980000     4.352185690000    -0.942309730000     1.007825032230
         H           -0.944210980000    -2.391532530000     1.794850470000     1.007825032230
         H            3.567136740000    -2.391532530000     1.794850470000     1.007825032230
         C            2.622925760000     2.940979740000    -0.426270370000    12.000000000000
         C            0.000000000000     2.940979740000    -0.426270370000    12.000000000000
         C            0.000000000000    -0.980326580000     1.278811120000    12.000000000000
         C            2.622925760000    -0.980326580000     1.278811120000    12.000000000000
      Gh(N)         -18.953299590000   -10.074949200000    14.535343570000    14.003074004430
      Gh(N)         -13.668678680000   -10.074949200000    14.535343570000    14.003074004430
      Gh(H)         -14.055315270000    -6.703090090000    13.166763470000     1.007825032230
      Gh(H)         -18.566662990000    -6.703090090000    13.166763470000     1.007825032230
      Gh(H)         -18.566662990000   -13.446808310000    15.903923670000     1.007825032230
      Gh(H)         -14.055315270000   -13.446808310000    15.903923670000     1.007825032230
      Gh(C)         -14.999526250000    -8.114296040000    13.682802820000    12.000000000000
      Gh(C)         -17.622452010000    -8.114296040000    13.682802820000    12.000000000000
      Gh(C)         -17.622452010000   -12.035602360000    15.387884320000    12.000000000000
      Gh(C)         -14.999526250000   -12.035602360000    15.387884320000    12.000000000000

  Running in c1 symmetry.

  Rotational constants: A =      0.07558  B =      0.00128  C =      0.00127 [cm^-1]
  Rotational constants: A =   2265.73136  B =     38.30466  C =     38.00428 [MHz]
  Nuclear repulsion =  212.551731110485349

  Charge       = 0
  Multiplicity = 1
  Electrons    = 42
  Nalpha       = 21
  Nbeta        = 21

  ==> Algorithm <==

  SCF Algorithm Type is DF.
  DIIS enabled.
  MOM disabled.
  Fractional occupation disabled.
  Guess Type is SAD.
  Energy threshold   = 1.00e-10
  Density threshold  = 1.00e-10
  Integral threshold = 1.00e-12

  ==> Primary Basis <==

  Basis Set: AUG-CC-PVDZ
    Blend: AUG-CC-PVDZ
    Number of shells: 148
    Number of basis functions: 348
    Number of Cartesian functions: 372
    Spherical Harmonics?: true
    Max angular momentum: 2

   => Loading Basis Set <=

    Name: (AUG-CC-PVDZ AUX)
    Role: JKFIT
    Keyword: DF_BASIS_SCF
    atoms 1-2, 11-12  entry N          line   212 file /storage/home/hhive1/csargent30/data/miniconda3/envs/psi4/share/psi4/basis/aug-cc-pvdz-jkfit.gbs 
    atoms 3-6, 13-16  entry H          line    70 file /storage/home/hhive1/csargent30/data/miniconda3/envs/psi4/share/psi4/basis/aug-cc-pvdz-jkfit.gbs 
    atoms 7-10, 17-20 entry C          line   154 file /storage/home/hhive1/csargent30/data/miniconda3/envs/psi4/share/psi4/basis/aug-cc-pvdz-jkfit.gbs 

  ==> Integral Setup <==

  ==> DiskDFJK: Density-Fitted J/K Matrices <==

    J tasked:                  Yes
    K tasked:                  Yes
    wK tasked:                  No
    OpenMP threads:              2
    Integrals threads:           2
    Memory [MiB]:             5006
    Algorithm:                Core
    Integral Cache:           LOAD
    Schwarz Cutoff:          1E-12
    Fitting Condition:       1E-10

   => Auxiliary Basis Set <=

  Basis Set: (AUG-CC-PVDZ AUX)
    Blend: AUG-CC-PVDZ-JKFIT
    Number of shells: 432
    Number of basis functions: 1288
    Number of Cartesian functions: 1492
    Spherical Harmonics?: true
    Max angular momentum: 3

  Minimum eigenvalue in the overlap matrix is 9.3363402097E-06.
  Reciprocal condition number of the overlap matrix is 7.2818911147E-07.
    Using symmetric orthogonalization.

  ==> Pre-Iterations <==

  SCF Guess: Superposition of Atomic Densities via on-the-fly atomic UHF (no occupation information).

   -------------------------
    Irrep   Nso     Nmo    
   -------------------------
     A        348     348 
   -------------------------
    Total     348     348
   -------------------------

  ==> Iterations <==

                           Total Energy        Delta E     RMS |[F,P]|

   @DF-RHF iter SAD:  -262.32523126312464   -2.62325e+02   0.00000e+00 
   @DF-RHF iter   1:  -262.53940944893634   -2.14178e-01   1.11986e-03 DIIS
   @DF-RHF iter   2:  -262.62879006183027   -8.93806e-02   4.10665e-04 DIIS
   @DF-RHF iter   3:  -262.63862462705606   -9.83457e-03   1.28248e-04 DIIS
   @DF-RHF iter   4:  -262.63984937632063   -1.22475e-03   3.77600e-05 DIIS
   @DF-RHF iter   5:  -262.63993897680734   -8.96005e-05   7.55560e-06 DIIS
   @DF-RHF iter   6:  -262.63994552708687   -6.55028e-06   2.45265e-06 DIIS
   @DF-RHF iter   7:  -262.63994647946799   -9.52381e-07   6.40132e-07 DIIS
   @DF-RHF iter   8:  -262.63994655335597   -7.38880e-08   9.91695e-08 DIIS
   @DF-RHF iter   9:  -262.63994655534219   -1.98622e-09   1.88230e-08 DIIS
   @DF-RHF iter  10:  -262.63994655541330   -7.11111e-11   3.19279e-09 DIIS
   @DF-RHF iter  11:  -262.63994655541478   -1.47793e-12   5.35435e-10 DIIS
   @DF-RHF iter  12:  -262.63994655541512   -3.41061e-13   1.80822e-10 DIIS
   @DF-RHF iter  13:  -262.63994655541518   -5.68434e-14   8.74252e-11 DIIS
  Energy and wave function converged.


  ==> Post-Iterations <==

    Orbital Energies [Eh]
    ---------------------

    Doubly Occupied:                                                      

       1A    -15.598072     2A    -15.598053     3A    -11.274238  
       4A    -11.274193     5A    -11.272974     6A    -11.272969  
       7A     -1.313347     8A     -1.224175     9A     -1.076803  
      10A     -0.922662    11A     -0.919282    12A     -0.760637  
      13A     -0.738402    14A     -0.706214    15A     -0.647688  
      16A     -0.580711    17A     -0.574369    18A     -0.497113  
      19A     -0.434288    20A     -0.415855    21A     -0.359924  

    Virtual:                                                              

      22A      0.022073    23A      0.033341    24A      0.038060  
      25A      0.040047    26A      0.042379    27A      0.048964  
      28A      0.056516    29A      0.063349    30A      0.067170  
      31A      0.079675    32A      0.085289    33A      0.099270  
      34A      0.100791    35A      0.104054    36A      0.108103  
      37A      0.108659    38A      0.114235    39A      0.115268  
      40A      0.121895    41A      0.123903    42A      0.124412  
      43A      0.126351    44A      0.130172    45A      0.130975  
      46A      0.132864    47A      0.134645    48A      0.152362  
      49A      0.152821    50A      0.157218    51A      0.158981  
      52A      0.161699    53A      0.162624    54A      0.166964  
      55A      0.176366    56A      0.179087    57A      0.188024  
      58A      0.198313    59A      0.203710    60A      0.204184  
      61A      0.206787    62A      0.212568    63A      0.223202  
      64A      0.234133    65A      0.239866    66A      0.250555  
      67A      0.255503    68A      0.267879    69A      0.271412  
      70A      0.278166    71A      0.288076    72A      0.293267  
      73A      0.296078    74A      0.302551    75A      0.314747  
      76A      0.319885    77A      0.322565    78A      0.329297  
      79A      0.331671    80A      0.343866    81A      0.356515  
      82A      0.357925    83A      0.364687    84A      0.380808  
      85A      0.382756    86A      0.385631    87A      0.399246  
      88A      0.401284    89A      0.409988    90A      0.419662  
      91A      0.424324    92A      0.427149    93A      0.433992  
      94A      0.437844    95A      0.441895    96A      0.452472  
      97A      0.460606    98A      0.461569    99A      0.471668  
     100A      0.476784   101A      0.478980   102A      0.492178  
     103A      0.504989   104A      0.508075   105A      0.515051  
     106A      0.523976   107A      0.524667   108A      0.529384  
     109A      0.535805   110A      0.554572   111A      0.557956  
     112A      0.561484   113A      0.564503   114A      0.570545  
     115A      0.582910   116A      0.587574   117A      0.591657  
     118A      0.593812   119A      0.595993   120A      0.608960  
     121A      0.615108   122A      0.620391   123A      0.636327  
     124A      0.643867   125A      0.644459   126A      0.649323  
     127A      0.651442   128A      0.679475   129A      0.684701  
     130A      0.685657   131A      0.687825   132A      0.689943  
     133A      0.690986   134A      0.695078   135A      0.704037  
     136A      0.720126   137A      0.728574   138A      0.746221  
     139A      0.747754   140A      0.754834   141A      0.767026  
     142A      0.775632   143A      0.781626   144A      0.793648  
     145A      0.799842   146A      0.802870   147A      0.811428  
     148A      0.811984   149A      0.819108   150A      0.824704  
     151A      0.831089   152A      0.847413   153A      0.848204  
     154A      0.849744   155A      0.868797   156A      0.880603  
     157A      0.886449   158A      0.888159   159A      0.894699  
     160A      0.906107   161A      0.929011   162A      0.929618  
     163A      0.939524   164A      0.947795   165A      0.949382  
     166A      0.970741   167A      0.976867   168A      0.986606  
     169A      0.997212   170A      0.998980   171A      1.013023  
     172A      1.032308   173A      1.034066   174A      1.046880  
     175A      1.051251   176A      1.076455   177A      1.089414  
     178A      1.090225   179A      1.100614   180A      1.122424  
     181A      1.124040   182A      1.131247   183A      1.134613  
     184A      1.140338   185A      1.158864   186A      1.168573  
     187A      1.170738   188A      1.173582   189A      1.192348  
     190A      1.193268   191A      1.200418   192A      1.222336  
     193A      1.235505   194A      1.238842   195A      1.250969  
     196A      1.307526   197A      1.309734   198A      1.318256  
     199A      1.326489   200A      1.329614   201A      1.331244  
     202A      1.346848   203A      1.389323   204A      1.414316  
     205A      1.448323   206A      1.451603   207A      1.455397  
     208A      1.479109   209A      1.486118   210A      1.487166  
     211A      1.488338   212A      1.499701   213A      1.503109  
     214A      1.518372   215A      1.572699   216A      1.574277  
     217A      1.587993   218A      1.636083   219A      1.640545  
     220A      1.648540   221A      1.659322   222A      1.676756  
     223A      1.698018   224A      1.716992   225A      1.746606  
     226A      1.755158   227A      1.784124   228A      1.815729  
     229A      1.893327   230A      1.916158   231A      1.964832  
     232A      1.987679   233A      2.031217   234A      2.070189  
     235A      2.091558   236A      2.101136   237A      2.102777  
     238A      2.119454   239A      2.143096   240A      2.156639  
     241A      2.159244   242A      2.163426   243A      2.190495  
     244A      2.193763   245A      2.194821   246A      2.200431  
     247A      2.202411   248A      2.227640   249A      2.234799  
     250A      2.241310   251A      2.249637   252A      2.309987  
     253A      2.312849   254A      2.319587   255A      2.355464  
     256A      2.385091   257A      2.419293   258A      2.431025  
     259A      2.435388   260A      2.438132   261A      2.439144  
     262A      2.472631   263A      2.486992   264A      2.498309  
     265A      2.519434   266A      2.522400   267A      2.525281  
     268A      2.546086   269A      2.568636   270A      2.584802  
     271A      2.592417   272A      2.606267   273A      2.626072  
     274A      2.665229   275A      2.675419   276A      2.686544  
     277A      2.714039   278A      2.717010   279A      2.718826  
     280A      2.726598   281A      2.767898   282A      2.844017  
     283A      2.865776   284A      2.904373   285A      2.939208  
     286A      2.947225   287A      2.955812   288A      2.973389  
     289A      3.001879   290A      3.017959   291A      3.032193  
     292A      3.058284   293A      3.065605   294A      3.094171  
     295A      3.114393   296A      3.221128   297A      3.245685  
     298A      3.255993   299A      3.284999   300A      3.289646  
     301A      3.321927   302A      3.337755   303A      3.340458  
     304A      3.348605   305A      3.351321   306A      3.366216  
     307A      3.412624   308A      3.413381   309A      3.470930  
     310A      3.501948   311A      3.514968   312A      3.521321  
     313A      3.590694   314A      3.604409   315A      3.605644  
     316A      3.627797   317A      3.700488   318A      3.819083  
     319A      3.830650   320A      3.940956   321A      3.969110  
     322A      3.977374   323A      4.011434   324A      4.194792  
     325A      4.242788   326A      4.253493   327A      4.441989  
     328A      4.546827   329A      4.579247   330A      4.867596  
     331A      4.976137   332A      5.057954   333A      5.261757  
     334A      5.316519   335A      5.630385   336A      5.691290  
     337A      5.827132   338A      5.952618   339A      6.283927  
     340A      6.306872   341A      6.453752   342A      6.631182  
     343A     18.125699   344A     18.208006   345A     19.018137  
     346A     19.343145   347A     25.287015   348A     25.374735  

    Final Occupation by Irrep:
              A 
    DOCC [    21 ]

  @DF-RHF Final Energy:  -262.63994655541518

   => Energetics <=

    Nuclear Repulsion Energy =            212.5517311104853491
    One-Electron Energy =                -775.4594197761044825
    Two-Electron Energy =                 300.2677421102039830
    Total Energy =                       -262.6399465554151789

Computation Completed


Properties will be evaluated at   0.000000,   0.000000,   0.000000 [a0]

Properties computed using the SCF density matrix

  Nuclear Dipole Moment: [e a0]
     X:    55.0814      Y:    41.1737      Z:    17.9034

  Electronic Dipole Moment: [e a0]
     X:   -55.0814      Y:   -41.1737      Z:   -17.9034

  Dipole Moment: [e a0]
     X:     0.0000      Y:    -0.0000      Z:     0.0000     Total:     0.0000

  Dipole Moment: [D]
     X:     0.0000      Y:    -0.0000      Z:     0.0000     Total:     0.0000


*** tstop() called on atl1-1-01-015-20-r.pace.gatech.edu at Mon Nov 29 16:11:06 2021
Module time:
	user time   =      17.76 seconds =       0.30 minutes
	system time =       0.52 seconds =       0.01 minutes
	total time  =         10 seconds =       0.17 minutes
Total time:
	user time   =      46.26 seconds =       0.77 minutes
	system time =       1.58 seconds =       0.03 minutes
	total time  =         25 seconds =       0.42 minutes

  //>>>>>>>>>>>>>>>>>>>>>>>>>>>>>>>>>>>//
  //            Monomer B HF           //
  //<<<<<<<<<<<<<<<<<<<<<<<<<<<<<<<<<<<//


*** tstart() called on atl1-1-01-015-20-r.pace.gatech.edu
*** at Mon Nov 29 16:11:06 2021

   => Loading Basis Set <=

    Name: AUG-CC-PVDZ
    Role: ORBITAL
    Keyword: BASIS
    atoms 1-2, 11-12  entry N          line   218 file /storage/home/hhive1/csargent30/data/miniconda3/envs/psi4/share/psi4/basis/aug-cc-pvdz.gbs 
    atoms 3-6, 13-16  entry H          line    40 file /storage/home/hhive1/csargent30/data/miniconda3/envs/psi4/share/psi4/basis/aug-cc-pvdz.gbs 
    atoms 7-10, 17-20 entry C          line   182 file /storage/home/hhive1/csargent30/data/miniconda3/envs/psi4/share/psi4/basis/aug-cc-pvdz.gbs 


         ---------------------------------------------------------
                                   SCF
               by Justin Turney, Rob Parrish, Andy Simmonett
                          and Daniel G. A. Smith
                              RHF Reference
                        2 Threads,   6675 MiB Core
         ---------------------------------------------------------

  ==> Geometry <==

    Molecular point group: c1
    Full point group: C1

    Geometry (in Bohr), charge = 0, multiplicity = 1:

       Center              X                  Y                   Z               Mass       
    ------------   -----------------  -----------------  -----------------  -----------------
      Gh(N)          -1.330847580000     0.980326580000     0.426270370000    14.003074004430
      Gh(N)           3.953773330000     0.980326580000     0.426270370000    14.003074004430
      Gh(H)           3.567136740000     4.352185690000    -0.942309730000     1.007825032230
      Gh(H)          -0.944210980000     4.352185690000    -0.942309730000     1.007825032230
      Gh(H)          -0.944210980000    -2.391532530000     1.794850470000     1.007825032230
      Gh(H)           3.567136740000    -2.391532530000     1.794850470000     1.007825032230
      Gh(C)           2.622925760000     2.940979740000    -0.426270370000    12.000000000000
      Gh(C)           0.000000000000     2.940979740000    -0.426270370000    12.000000000000
      Gh(C)           0.000000000000    -0.980326580000     1.278811120000    12.000000000000
      Gh(C)           2.622925760000    -0.980326580000     1.278811120000    12.000000000000
         N          -18.953299590000   -10.074949200000    14.535343570000    14.003074004430
         N          -13.668678680000   -10.074949200000    14.535343570000    14.003074004430
         H          -14.055315270000    -6.703090090000    13.166763470000     1.007825032230
         H          -18.566662990000    -6.703090090000    13.166763470000     1.007825032230
         H          -18.566662990000   -13.446808310000    15.903923670000     1.007825032230
         H          -14.055315270000   -13.446808310000    15.903923670000     1.007825032230
         C          -14.999526250000    -8.114296040000    13.682802820000    12.000000000000
         C          -17.622452010000    -8.114296040000    13.682802820000    12.000000000000
         C          -17.622452010000   -12.035602360000    15.387884320000    12.000000000000
         C          -14.999526250000   -12.035602360000    15.387884320000    12.000000000000

  Running in c1 symmetry.

  Rotational constants: A =      0.07558  B =      0.00128  C =      0.00127 [cm^-1]
  Rotational constants: A =   2265.73136  B =     38.30466  C =     38.00428 [MHz]
  Nuclear repulsion =  212.551731042300503

  Charge       = 0
  Multiplicity = 1
  Electrons    = 42
  Nalpha       = 21
  Nbeta        = 21

  ==> Algorithm <==

  SCF Algorithm Type is DF.
  DIIS enabled.
  MOM disabled.
  Fractional occupation disabled.
  Guess Type is SAD.
  Energy threshold   = 1.00e-10
  Density threshold  = 1.00e-10
  Integral threshold = 1.00e-12

  ==> Primary Basis <==

  Basis Set: AUG-CC-PVDZ
    Blend: AUG-CC-PVDZ
    Number of shells: 148
    Number of basis functions: 348
    Number of Cartesian functions: 372
    Spherical Harmonics?: true
    Max angular momentum: 2

   => Loading Basis Set <=

    Name: (AUG-CC-PVDZ AUX)
    Role: JKFIT
    Keyword: DF_BASIS_SCF
    atoms 1-2, 11-12  entry N          line   212 file /storage/home/hhive1/csargent30/data/miniconda3/envs/psi4/share/psi4/basis/aug-cc-pvdz-jkfit.gbs 
    atoms 3-6, 13-16  entry H          line    70 file /storage/home/hhive1/csargent30/data/miniconda3/envs/psi4/share/psi4/basis/aug-cc-pvdz-jkfit.gbs 
    atoms 7-10, 17-20 entry C          line   154 file /storage/home/hhive1/csargent30/data/miniconda3/envs/psi4/share/psi4/basis/aug-cc-pvdz-jkfit.gbs 

  ==> Integral Setup <==

  ==> DiskDFJK: Density-Fitted J/K Matrices <==

    J tasked:                  Yes
    K tasked:                  Yes
    wK tasked:                  No
    OpenMP threads:              2
    Integrals threads:           2
    Memory [MiB]:             5006
    Algorithm:                Core
    Integral Cache:           LOAD
    Schwarz Cutoff:          1E-12
    Fitting Condition:       1E-10

   => Auxiliary Basis Set <=

  Basis Set: (AUG-CC-PVDZ AUX)
    Blend: AUG-CC-PVDZ-JKFIT
    Number of shells: 432
    Number of basis functions: 1288
    Number of Cartesian functions: 1492
    Spherical Harmonics?: true
    Max angular momentum: 3

  Minimum eigenvalue in the overlap matrix is 9.3363402097E-06.
  Reciprocal condition number of the overlap matrix is 7.2818911147E-07.
    Using symmetric orthogonalization.

  ==> Pre-Iterations <==

  SCF Guess: Superposition of Atomic Densities via on-the-fly atomic UHF (no occupation information).

   -------------------------
    Irrep   Nso     Nmo    
   -------------------------
     A        348     348 
   -------------------------
    Total     348     348
   -------------------------

  ==> Iterations <==

                           Total Energy        Delta E     RMS |[F,P]|

   @DF-RHF iter SAD:  -262.32523125772826   -2.62325e+02   0.00000e+00 
   @DF-RHF iter   1:  -262.53940944966473   -2.14178e-01   1.11986e-03 DIIS
   @DF-RHF iter   2:  -262.62879006243736   -8.93806e-02   4.10665e-04 DIIS
   @DF-RHF iter   3:  -262.63862462761483   -9.83457e-03   1.28248e-04 DIIS
   @DF-RHF iter   4:  -262.63984937687917   -1.22475e-03   3.77600e-05 DIIS
   @DF-RHF iter   5:  -262.63993897736589   -8.96005e-05   7.55560e-06 DIIS
   @DF-RHF iter   6:  -262.63994552764638   -6.55028e-06   2.45265e-06 DIIS
   @DF-RHF iter   7:  -262.63994648002813   -9.52382e-07   6.40132e-07 DIIS
   @DF-RHF iter   8:  -262.63994655391650   -7.38884e-08   9.91695e-08 DIIS
   @DF-RHF iter   9:  -262.63994655590255   -1.98605e-09   1.88230e-08 DIIS
   @DF-RHF iter  10:  -262.63994655597327   -7.07132e-11   3.19282e-09 DIIS
   @DF-RHF iter  11:  -262.63994655597509   -1.81899e-12   5.35737e-10 DIIS
   @DF-RHF iter  12:  -262.63994655597452    5.68434e-13   1.82286e-10 DIIS
   @DF-RHF iter  13:  -262.63994655597480   -2.84217e-13   8.75015e-11 DIIS
  Energy and wave function converged.


  ==> Post-Iterations <==

    Orbital Energies [Eh]
    ---------------------

    Doubly Occupied:                                                      

       1A    -15.598072     2A    -15.598053     3A    -11.274238  
       4A    -11.274193     5A    -11.272974     6A    -11.272969  
       7A     -1.313347     8A     -1.224175     9A     -1.076803  
      10A     -0.922662    11A     -0.919282    12A     -0.760637  
      13A     -0.738402    14A     -0.706214    15A     -0.647688  
      16A     -0.580711    17A     -0.574369    18A     -0.497113  
      19A     -0.434288    20A     -0.415855    21A     -0.359924  

    Virtual:                                                              

      22A      0.022073    23A      0.033341    24A      0.038060  
      25A      0.040047    26A      0.042379    27A      0.048964  
      28A      0.056516    29A      0.063349    30A      0.067170  
      31A      0.079675    32A      0.085289    33A      0.099270  
      34A      0.100791    35A      0.104054    36A      0.108103  
      37A      0.108659    38A      0.114235    39A      0.115268  
      40A      0.121895    41A      0.123903    42A      0.124413  
      43A      0.126351    44A      0.130172    45A      0.130975  
      46A      0.132864    47A      0.134645    48A      0.152362  
      49A      0.152821    50A      0.157218    51A      0.158981  
      52A      0.161699    53A      0.162624    54A      0.166964  
      55A      0.176366    56A      0.179087    57A      0.188024  
      58A      0.198313    59A      0.203710    60A      0.204184  
      61A      0.206787    62A      0.212568    63A      0.223202  
      64A      0.234133    65A      0.239866    66A      0.250555  
      67A      0.255503    68A      0.267879    69A      0.271412  
      70A      0.278166    71A      0.288076    72A      0.293267  
      73A      0.296078    74A      0.302551    75A      0.314747  
      76A      0.319885    77A      0.322565    78A      0.329297  
      79A      0.331671    80A      0.343866    81A      0.356515  
      82A      0.357925    83A      0.364687    84A      0.380808  
      85A      0.382756    86A      0.385631    87A      0.399246  
      88A      0.401284    89A      0.409988    90A      0.419662  
      91A      0.424324    92A      0.427149    93A      0.433992  
      94A      0.437844    95A      0.441895    96A      0.452472  
      97A      0.460606    98A      0.461569    99A      0.471668  
     100A      0.476784   101A      0.478980   102A      0.492178  
     103A      0.504989   104A      0.508075   105A      0.515051  
     106A      0.523976   107A      0.524667   108A      0.529384  
     109A      0.535805   110A      0.554572   111A      0.557956  
     112A      0.561484   113A      0.564503   114A      0.570545  
     115A      0.582910   116A      0.587574   117A      0.591657  
     118A      0.593812   119A      0.595993   120A      0.608960  
     121A      0.615108   122A      0.620391   123A      0.636327  
     124A      0.643867   125A      0.644459   126A      0.649323  
     127A      0.651442   128A      0.679475   129A      0.684701  
     130A      0.685657   131A      0.687825   132A      0.689943  
     133A      0.690986   134A      0.695078   135A      0.704037  
     136A      0.720126   137A      0.728574   138A      0.746221  
     139A      0.747754   140A      0.754834   141A      0.767026  
     142A      0.775632   143A      0.781626   144A      0.793648  
     145A      0.799842   146A      0.802870   147A      0.811428  
     148A      0.811984   149A      0.819108   150A      0.824704  
     151A      0.831089   152A      0.847413   153A      0.848204  
     154A      0.849744   155A      0.868797   156A      0.880603  
     157A      0.886449   158A      0.888159   159A      0.894699  
     160A      0.906107   161A      0.929011   162A      0.929618  
     163A      0.939524   164A      0.947795   165A      0.949382  
     166A      0.970741   167A      0.976867   168A      0.986606  
     169A      0.997212   170A      0.998980   171A      1.013023  
     172A      1.032308   173A      1.034066   174A      1.046880  
     175A      1.051251   176A      1.076455   177A      1.089414  
     178A      1.090225   179A      1.100614   180A      1.122424  
     181A      1.124040   182A      1.131247   183A      1.134613  
     184A      1.140338   185A      1.158864   186A      1.168573  
     187A      1.170738   188A      1.173582   189A      1.192348  
     190A      1.193268   191A      1.200418   192A      1.222336  
     193A      1.235505   194A      1.238842   195A      1.250969  
     196A      1.307526   197A      1.309735   198A      1.318256  
     199A      1.326489   200A      1.329614   201A      1.331244  
     202A      1.346848   203A      1.389323   204A      1.414316  
     205A      1.448323   206A      1.451603   207A      1.455397  
     208A      1.479109   209A      1.486118   210A      1.487166  
     211A      1.488338   212A      1.499701   213A      1.503109  
     214A      1.518372   215A      1.572699   216A      1.574277  
     217A      1.587993   218A      1.636083   219A      1.640545  
     220A      1.648540   221A      1.659322   222A      1.676756  
     223A      1.698018   224A      1.716992   225A      1.746606  
     226A      1.755158   227A      1.784124   228A      1.815729  
     229A      1.893327   230A      1.916158   231A      1.964832  
     232A      1.987679   233A      2.031217   234A      2.070189  
     235A      2.091558   236A      2.101136   237A      2.102777  
     238A      2.119454   239A      2.143096   240A      2.156639  
     241A      2.159244   242A      2.163426   243A      2.190495  
     244A      2.193763   245A      2.194821   246A      2.200431  
     247A      2.202411   248A      2.227640   249A      2.234799  
     250A      2.241310   251A      2.249637   252A      2.309987  
     253A      2.312849   254A      2.319587   255A      2.355464  
     256A      2.385091   257A      2.419293   258A      2.431025  
     259A      2.435388   260A      2.438132   261A      2.439144  
     262A      2.472631   263A      2.486992   264A      2.498309  
     265A      2.519434   266A      2.522400   267A      2.525281  
     268A      2.546086   269A      2.568636   270A      2.584802  
     271A      2.592417   272A      2.606267   273A      2.626072  
     274A      2.665229   275A      2.675419   276A      2.686544  
     277A      2.714039   278A      2.717010   279A      2.718826  
     280A      2.726598   281A      2.767898   282A      2.844017  
     283A      2.865776   284A      2.904373   285A      2.939208  
     286A      2.947225   287A      2.955812   288A      2.973389  
     289A      3.001879   290A      3.017959   291A      3.032193  
     292A      3.058284   293A      3.065605   294A      3.094171  
     295A      3.114393   296A      3.221128   297A      3.245685  
     298A      3.255993   299A      3.284999   300A      3.289646  
     301A      3.321927   302A      3.337755   303A      3.340458  
     304A      3.348605   305A      3.351321   306A      3.366216  
     307A      3.412624   308A      3.413381   309A      3.470930  
     310A      3.501948   311A      3.514968   312A      3.521321  
     313A      3.590694   314A      3.604409   315A      3.605644  
     316A      3.627797   317A      3.700488   318A      3.819083  
     319A      3.830650   320A      3.940956   321A      3.969110  
     322A      3.977373   323A      4.011434   324A      4.194792  
     325A      4.242788   326A      4.253493   327A      4.441989  
     328A      4.546827   329A      4.579247   330A      4.867596  
     331A      4.976137   332A      5.057954   333A      5.261757  
     334A      5.316519   335A      5.630385   336A      5.691290  
     337A      5.827132   338A      5.952618   339A      6.283927  
     340A      6.306872   341A      6.453752   342A      6.631182  
     343A     18.125699   344A     18.208006   345A     19.018137  
     346A     19.343145   347A     25.287015   348A     25.374735  

    Final Occupation by Irrep:
              A 
    DOCC [    21 ]

  @DF-RHF Final Energy:  -262.63994655597480

   => Energetics <=

    Nuclear Repulsion Energy =            212.5517310423005028
    One-Electron Energy =                -775.4594196382496420
    Two-Electron Energy =                 300.2677420399743369
    Total Energy =                       -262.6399465559748023

Computation Completed


Properties will be evaluated at   0.000000,   0.000000,   0.000000 [a0]

Properties computed using the SCF density matrix

  Nuclear Dipole Moment: [e a0]
     X:  -685.0615      Y:  -423.1479      Z:   610.4844

  Electronic Dipole Moment: [e a0]
     X:   685.0615      Y:   423.1479      Z:  -610.4844

  Dipole Moment: [e a0]
     X:    -0.0000      Y:     0.0000      Z:    -0.0000     Total:     0.0000

  Dipole Moment: [D]
     X:    -0.0000      Y:     0.0000      Z:    -0.0000     Total:     0.0000


*** tstop() called on atl1-1-01-015-20-r.pace.gatech.edu at Mon Nov 29 16:11:16 2021
Module time:
	user time   =      17.86 seconds =       0.30 minutes
	system time =       0.49 seconds =       0.01 minutes
	total time  =         10 seconds =       0.17 minutes
Total time:
	user time   =      64.13 seconds =       1.07 minutes
	system time =       2.07 seconds =       0.03 minutes
	total time  =         35 seconds =       0.58 minutes
  Constructing Basis Sets for SAPT...

   => Loading Basis Set <=

    Name: (AUG-CC-PVDZ AUX)
    Role: RIFIT
    Keyword: DF_BASIS_SAPT
    atoms 1-2, 11-12  entry N          line   158 file /storage/home/hhive1/csargent30/data/miniconda3/envs/psi4/share/psi4/basis/aug-cc-pvdz-ri.gbs 
    atoms 3-6, 13-16  entry H          line    30 file /storage/home/hhive1/csargent30/data/miniconda3/envs/psi4/share/psi4/basis/aug-cc-pvdz-ri.gbs 
    atoms 7-10, 17-20 entry C          line   112 file /storage/home/hhive1/csargent30/data/miniconda3/envs/psi4/share/psi4/basis/aug-cc-pvdz-ri.gbs 


  //>>>>>>>>>>>>>>>>>>>>>>>>>>>>>>>>>>>//
  //               SAPT0               //
  //<<<<<<<<<<<<<<<<<<<<<<<<<<<<<<<<<<<//


*** tstart() called on atl1-1-01-015-20-r.pace.gatech.edu
*** at Mon Nov 29 16:11:16 2021

        SAPT0  
    Ed Hohenstein
     6 June 2009

      Orbital Information
  --------------------------
    NSO        =       348
    NMO        =       348
    NRI        =      1048
    NOCC A     =        21
    NOCC B     =        21
    FOCC A     =         6
    FOCC B     =         6
    NVIR A     =       327
    NVIR B     =       327

    Elst10,r            =    -0.000032472096 [Eh]
    Exch10              =     0.000000001975 [Eh]
    Exch10 (S^2)        =     0.000000001975 [Eh]

    Iter     Energy [mEh]          dE [mEh]         Residual      Time [s]
       1      -0.00005985       0.000059854       0.087733455             0
       2      -0.00005433      -0.000005526       0.020053026             1
       3      -0.00006070       0.000006375       0.007333143             1
       4      -0.00006110       0.000000402       0.003693065             2
       5      -0.00006087      -0.000000235       0.001824990             2
       6      -0.00006079      -0.000000079       0.000646758             2
       7      -0.00006082       0.000000030       0.000243950             3
       8      -0.00006083       0.000000013       0.000064031             3
       9      -0.00006083      -0.000000002       0.000024914             3
      10      -0.00006083      -0.000000002       0.000007915             4
      11      -0.00006083       0.000000000       0.000004111             4
      12      -0.00006083       0.000000000       0.000001463             4
      13      -0.00006083      -0.000000000       0.000000553             5

    CHF Iterations converged


    Iter     Energy [mEh]          dE [mEh]         Residual      Time [s]
       1      -0.00005985       0.000059854       0.087733456             0
       2      -0.00005433      -0.000005526       0.020053026             1
       3      -0.00006070       0.000006375       0.007333143             1
       4      -0.00006110       0.000000402       0.003693065             1
       5      -0.00006087      -0.000000235       0.001824990             2
       6      -0.00006079      -0.000000079       0.000646758             2
       7      -0.00006082       0.000000030       0.000243950             2
       8      -0.00006083       0.000000013       0.000064031             3
       9      -0.00006083      -0.000000002       0.000024914             3
      10      -0.00006083      -0.000000002       0.000007915             3
      11      -0.00006083       0.000000000       0.000004111             4
      12      -0.00006083       0.000000000       0.000001463             4
      13      -0.00006083      -0.000000000       0.000000553             5

    CHF Iterations converged

    Ind20,r (A<-B)      =    -0.000000060831 [Eh]
    Ind20,r (B<-A)      =    -0.000000060831 [Eh]
    Ind20,r             =    -0.000000121662 [Eh]
    Exch-Ind20,r (A<-B) =     0.000000001712 [Eh]
    Exch-Ind20,r (B<-A) =     0.000000001712 [Eh]
    Exch-Ind20,r        =     0.000000003425 [Eh]
    Disp20              =    -0.000008347852 [Eh]
    Disp20 (SS)         =    -0.000004173926 [Eh]
    Disp20 (OS)         =    -0.000004173926 [Eh]
    Exch-Disp20         =     0.000000000175 [Eh]
    Exch-Disp20 (SS)    =     0.000000000139 [Eh]
    Exch-Disp20 (OS)    =     0.000000000036 [Eh]

    SAPT Results 
  --------------------------------------------------------------------------------------------------------
    Electrostatics                 -0.03247210 [mEh]      -0.02037655 [kcal/mol]      -0.08525548 [kJ/mol]
      Elst10,r                     -0.03247210 [mEh]      -0.02037655 [kcal/mol]      -0.08525548 [kJ/mol]

    Exchange                        0.00000198 [mEh]       0.00000124 [kcal/mol]       0.00000519 [kJ/mol]
      Exch10                        0.00000198 [mEh]       0.00000124 [kcal/mol]       0.00000519 [kJ/mol]
      Exch10(S^2)                   0.00000198 [mEh]       0.00000124 [kcal/mol]       0.00000519 [kJ/mol]

    Induction                      -0.00013190 [mEh]      -0.00008277 [kcal/mol]      -0.00034631 [kJ/mol]
      Ind20,r                      -0.00012166 [mEh]      -0.00007634 [kcal/mol]      -0.00031942 [kJ/mol]
      Exch-Ind20,r                  0.00000342 [mEh]       0.00000215 [kcal/mol]       0.00000899 [kJ/mol]
      delta HF,r (2)               -0.00001366 [mEh]      -0.00000857 [kcal/mol]      -0.00003588 [kJ/mol]

    Dispersion                     -0.00834768 [mEh]      -0.00523825 [kcal/mol]      -0.02191682 [kJ/mol]
      Disp20                       -0.00834785 [mEh]      -0.00523836 [kcal/mol]      -0.02191728 [kJ/mol]
      Exch-Disp20                   0.00000018 [mEh]       0.00000011 [kcal/mol]       0.00000046 [kJ/mol]
      Disp20 (SS)                  -0.00417393 [mEh]      -0.00261918 [kcal/mol]      -0.01095864 [kJ/mol]
      Disp20 (OS)                  -0.00417393 [mEh]      -0.00261918 [kcal/mol]      -0.01095864 [kJ/mol]
      Exch-Disp20 (SS)              0.00000014 [mEh]       0.00000009 [kcal/mol]       0.00000037 [kJ/mol]
      Exch-Disp20 (OS)              0.00000004 [mEh]       0.00000002 [kcal/mol]       0.00000009 [kJ/mol]

  Total HF                         -0.03260202 [mEh]      -0.02045808 [kcal/mol]      -0.08559660 [kJ/mol]
  Total SAPT0                      -0.04094970 [mEh]      -0.02569632 [kcal/mol]      -0.10751342 [kJ/mol]

  Special recipe for scaled SAPT0 (see Manual):
    Electrostatics sSAPT0          -0.03247210 [mEh]      -0.02037655 [kcal/mol]      -0.08525548 [kJ/mol]
    Exchange sSAPT0                 0.00000198 [mEh]       0.00000124 [kcal/mol]       0.00000519 [kJ/mol]
    Induction sSAPT0               -0.00013190 [mEh]      -0.00008277 [kcal/mol]      -0.00034631 [kJ/mol]
    Dispersion sSAPT0              -0.00834768 [mEh]      -0.00523825 [kcal/mol]      -0.02191682 [kJ/mol]
  Total sSAPT0                     -0.04094970 [mEh]      -0.02569632 [kcal/mol]      -0.10751342 [kJ/mol]
  --------------------------------------------------------------------------------------------------------

*** tstop() called on atl1-1-01-015-20-r.pace.gatech.edu at Mon Nov 29 16:11:43 2021
Module time:
	user time   =      40.42 seconds =       0.67 minutes
	system time =       9.90 seconds =       0.17 minutes
	total time  =         27 seconds =       0.45 minutes
Total time:
	user time   =     104.79 seconds =       1.75 minutes
	system time =      11.97 seconds =       0.20 minutes
	total time  =         62 seconds =       1.03 minutes


Warning! sapt0 does not have an associated derived wavefunction.The returned wavefunction is the dimer SCF wavefunction.


    Psi4 stopped on: Monday, 29 November 2021 04:11PM
    Psi4 wall time for execution: 0:01:02.47

*** Psi4 exiting successfully. Buy a developer a beer!
