
    -----------------------------------------------------------------------
          Psi4: An Open-Source Ab Initio Electronic Structure Package
                               Psi4 1.4.1 release

                         Git: Rev {HEAD} cd00f19 


    D. G. A. Smith, L. A. Burns, A. C. Simmonett, R. M. Parrish,
    M. C. Schieber, R. Galvelis, P. Kraus, H. Kruse, R. Di Remigio,
    A. Alenaizan, A. M. James, S. Lehtola, J. P. Misiewicz, M. Scheurer,
    R. A. Shaw, J. B. Schriber, Y. Xie, Z. L. Glick, D. A. Sirianni,
    J. S. O'Brien, J. M. Waldrop, A. Kumar, E. G. Hohenstein,
    B. P. Pritchard, B. R. Brooks, H. F. Schaefer III, A. Yu. Sokolov,
    K. Patkowski, A. E. DePrince III, U. Bozkaya, R. A. King,
    F. A. Evangelista, J. M. Turney, T. D. Crawford, C. D. Sherrill,
    J. Chem. Phys. 152(18) 184108 (2020). https://doi.org/10.1063/5.0006002

                            Additional Code Authors
    E. T. Seidl, C. L. Janssen, E. F. Valeev, M. L. Leininger,
    J. F. Gonthier, R. M. Richard, H. R. McAlexander, M. Saitow, X. Wang,
    P. Verma, and M. H. Lechner

             Previous Authors, Complete List of Code Contributors,
                       and Citations for Specific Modules
    https://github.com/psi4/psi4/blob/master/codemeta.json
    https://github.com/psi4/psi4/graphs/contributors
    http://psicode.org/psi4manual/master/introduction.html#citing-psifour

    -----------------------------------------------------------------------


    Psi4 started on: Monday, 29 November 2021 04:10PM

    Process ID: 396893
    Host:       atl1-1-01-013-9-r.pace.gatech.edu
    PSIDATADIR: /storage/home/hhive1/csargent30/data/miniconda3/envs/psi4/share/psi4
    Memory:     500.0 MiB
    Threads:    2
    
  ==> Input File <==

--------------------------------------------------------------------------
# PSI4 file produced by CrystaLattE

# Generated from:               pyrazine.xyz
# Psithon input for N-mer:      2mer-0+288
# Number of atoms per monomer:  [10, 10]
# Number of replicas:           4
# COM priority:                 1.880350795902e-05
# Minimum COM separations:      19.900 
# Separation priority:          2.935255660847e-05
# Minimum monomer separations:  17.155 
# Cutoff priority:              9.054432714142e-07
# Nuclear repulsion energy:     472.10358173931166

memory 7 GB

molecule Dimer_0_288 {
  N           -1.33084758       0.98032658       0.42627037 
  N            3.95377333       0.98032658       0.42627037 
  H            3.56713674       4.35218569      -0.94230973 
  H           -0.94421098       4.35218569      -0.94230973 
  H           -0.94421098      -2.39153253       1.79485047 
  H            3.56713674      -2.39153253       1.79485047 
  C            2.62292576       2.94097974      -0.42627037 
  C            0.00000000       2.94097974      -0.42627037 
  C            0.00000000      -0.98032658       1.27881112 
  C            2.62292576      -0.98032658       1.27881112 
--
  N          -36.57575160     -10.07494920      -6.62826622 
  N          -31.29113069     -10.07494920      -6.62826622 
  H          -31.67776728      -6.70309009      -7.99684633 
  H          -36.18911500      -6.70309009      -7.99684633 
  H          -36.18911500     -13.44680831      -5.25968612 
  H          -31.67776728     -13.44680831      -5.25968612 
  C          -32.62197826      -8.11429604      -7.48080697 
  C          -35.24490402      -8.11429604      -7.48080697 
  C          -35.24490402     -12.03560236      -5.77572548 
  C          -32.62197826     -12.03560236      -5.77572548 
units = au
no_com
no_reorient
}

set {
  e_convergence 10
  d_convergence 10
  scf_type df
  mp2_type df
  cc_type df
  freeze_core true
}

energy('sapt0/aug-cc-pvdz')

--------------------------------------------------------------------------

  Memory set to   6.519 GiB by Python driver.

Scratch directory: /tmp/

Scratch directory: /tmp/

  //>>>>>>>>>>>>>>>>>>>>>>>>>>>>>>>>>>>//
  //              Dimer HF             //
  //<<<<<<<<<<<<<<<<<<<<<<<<<<<<<<<<<<<//


*** tstart() called on atl1-1-01-013-9-r.pace.gatech.edu
*** at Mon Nov 29 16:10:42 2021

   => Loading Basis Set <=

    Name: AUG-CC-PVDZ
    Role: ORBITAL
    Keyword: BASIS
    atoms 1-2, 11-12  entry N          line   218 file /storage/home/hhive1/csargent30/data/miniconda3/envs/psi4/share/psi4/basis/aug-cc-pvdz.gbs 
    atoms 3-6, 13-16  entry H          line    40 file /storage/home/hhive1/csargent30/data/miniconda3/envs/psi4/share/psi4/basis/aug-cc-pvdz.gbs 
    atoms 7-10, 17-20 entry C          line   182 file /storage/home/hhive1/csargent30/data/miniconda3/envs/psi4/share/psi4/basis/aug-cc-pvdz.gbs 


         ---------------------------------------------------------
                                   SCF
               by Justin Turney, Rob Parrish, Andy Simmonett
                          and Daniel G. A. Smith
                              RHF Reference
                        2 Threads,   6675 MiB Core
         ---------------------------------------------------------

  ==> Geometry <==

    Molecular point group: c1
    Full point group: C1

    Geometry (in Bohr), charge = 0, multiplicity = 1:

       Center              X                  Y                   Z               Mass       
    ------------   -----------------  -----------------  -----------------  -----------------
         N           -1.330847580000     0.980326580000     0.426270370000    14.003074004430
         N            3.953773330000     0.980326580000     0.426270370000    14.003074004430
         H            3.567136740000     4.352185690000    -0.942309730000     1.007825032230
         H           -0.944210980000     4.352185690000    -0.942309730000     1.007825032230
         H           -0.944210980000    -2.391532530000     1.794850470000     1.007825032230
         H            3.567136740000    -2.391532530000     1.794850470000     1.007825032230
         C            2.622925760000     2.940979740000    -0.426270370000    12.000000000000
         C            0.000000000000     2.940979740000    -0.426270370000    12.000000000000
         C            0.000000000000    -0.980326580000     1.278811120000    12.000000000000
         C            2.622925760000    -0.980326580000     1.278811120000    12.000000000000
         N          -36.575751600000   -10.074949200000    -6.628266220000    14.003074004430
         N          -31.291130690000   -10.074949200000    -6.628266220000    14.003074004430
         H          -31.677767280000    -6.703090090000    -7.996846330000     1.007825032230
         H          -36.189115000000    -6.703090090000    -7.996846330000     1.007825032230
         H          -36.189115000000   -13.446808310000    -5.259686120000     1.007825032230
         H          -31.677767280000   -13.446808310000    -5.259686120000     1.007825032230
         C          -32.621978260000    -8.114296040000    -7.480806970000    12.000000000000
         C          -35.244904020000    -8.114296040000    -7.480806970000    12.000000000000
         C          -35.244904020000   -12.035602360000    -5.775725480000    12.000000000000
         C          -32.621978260000   -12.035602360000    -5.775725480000    12.000000000000

  Running in c1 symmetry.

  Rotational constants: A =      0.09694  B =      0.00058  C =      0.00057 [cm^-1]
  Rotational constants: A =   2906.19045  B =     17.25234  C =     17.16868 [MHz]
  Nuclear repulsion =  472.103581718235546

  Charge       = 0
  Multiplicity = 1
  Electrons    = 84
  Nalpha       = 42
  Nbeta        = 42

  ==> Algorithm <==

  SCF Algorithm Type is DF.
  DIIS enabled.
  MOM disabled.
  Fractional occupation disabled.
  Guess Type is SAD.
  Energy threshold   = 1.00e-10
  Density threshold  = 1.00e-10
  Integral threshold = 1.00e-12

  ==> Primary Basis <==

  Basis Set: AUG-CC-PVDZ
    Blend: AUG-CC-PVDZ
    Number of shells: 148
    Number of basis functions: 348
    Number of Cartesian functions: 372
    Spherical Harmonics?: true
    Max angular momentum: 2

   => Loading Basis Set <=

    Name: (AUG-CC-PVDZ AUX)
    Role: JKFIT
    Keyword: DF_BASIS_SCF
    atoms 1-2, 11-12  entry N          line   212 file /storage/home/hhive1/csargent30/data/miniconda3/envs/psi4/share/psi4/basis/aug-cc-pvdz-jkfit.gbs 
    atoms 3-6, 13-16  entry H          line    70 file /storage/home/hhive1/csargent30/data/miniconda3/envs/psi4/share/psi4/basis/aug-cc-pvdz-jkfit.gbs 
    atoms 7-10, 17-20 entry C          line   154 file /storage/home/hhive1/csargent30/data/miniconda3/envs/psi4/share/psi4/basis/aug-cc-pvdz-jkfit.gbs 

  ==> Integral Setup <==

  ==> DiskDFJK: Density-Fitted J/K Matrices <==

    J tasked:                  Yes
    K tasked:                  Yes
    wK tasked:                  No
    OpenMP threads:              2
    Integrals threads:           2
    Memory [MiB]:             5006
    Algorithm:                Core
    Integral Cache:           SAVE
    Schwarz Cutoff:          1E-12
    Fitting Condition:       1E-10

   => Auxiliary Basis Set <=

  Basis Set: (AUG-CC-PVDZ AUX)
    Blend: AUG-CC-PVDZ-JKFIT
    Number of shells: 432
    Number of basis functions: 1288
    Number of Cartesian functions: 1492
    Spherical Harmonics?: true
    Max angular momentum: 3

  Minimum eigenvalue in the overlap matrix is 9.4896405226E-06.
  Reciprocal condition number of the overlap matrix is 7.4016084821E-07.
    Using symmetric orthogonalization.

  ==> Pre-Iterations <==

  SCF Guess: Superposition of Atomic Densities via on-the-fly atomic UHF (no occupation information).

   -------------------------
    Irrep   Nso     Nmo    
   -------------------------
     A        348     348 
   -------------------------
    Total     348     348
   -------------------------

  ==> Iterations <==

                           Total Energy        Delta E     RMS |[F,P]|

   @DF-RHF iter SAD:  -524.65046251557862   -5.24650e+02   0.00000e+00 
   @DF-RHF iter   1:  -525.07881253122673   -4.28350e-01   1.58372e-03 DIIS
   @DF-RHF iter   2:  -525.25757349012906   -1.78761e-01   5.80773e-04 DIIS
   @DF-RHF iter   3:  -525.27724286928151   -1.96694e-02   1.81373e-04 DIIS
   @DF-RHF iter   4:  -525.27969243041844   -2.44956e-03   5.34020e-05 DIIS
   @DF-RHF iter   5:  -525.27987164065019   -1.79210e-04   1.06853e-05 DIIS
   @DF-RHF iter   6:  -525.27988474166727   -1.31010e-05   3.46868e-06 DIIS
   @DF-RHF iter   7:  -525.27988664655595   -1.90489e-06   9.05382e-07 DIIS
   @DF-RHF iter   8:  -525.27988679433315   -1.47777e-07   1.41259e-07 DIIS
   @DF-RHF iter   9:  -525.27988679829400   -3.96085e-09   3.41095e-08 DIIS
   @DF-RHF iter  10:  -525.27988679843895   -1.44951e-10   1.92848e-08 DIIS
   @DF-RHF iter  11:  -525.27988679846851   -2.95586e-11   2.80759e-09 DIIS
   @DF-RHF iter  12:  -525.27988679847090   -2.38742e-12   5.50753e-10 DIIS
   @DF-RHF iter  13:  -525.27988679847158   -6.82121e-13   2.93282e-10 DIIS
   @DF-RHF iter  14:  -525.27988679847101    5.68434e-13   5.80715e-11 DIIS
  Energy and wave function converged.


  ==> Post-Iterations <==

    Orbital Energies [Eh]
    ---------------------

    Doubly Occupied:                                                      

       1A    -15.597951     2A    -15.597951     3A    -15.597929  
       4A    -15.597929     5A    -11.274118     6A    -11.274118  
       7A    -11.274073     8A    -11.274073     9A    -11.272855  
      10A    -11.272855    11A    -11.272847    12A    -11.272847  
      13A     -1.313225    14A     -1.313225    15A     -1.224054  
      16A     -1.224054    17A     -1.076682    18A     -1.076682  
      19A     -0.922541    20A     -0.922541    21A     -0.919161  
      22A     -0.919161    23A     -0.760515    24A     -0.760515  
      25A     -0.738281    26A     -0.738281    27A     -0.706092  
      28A     -0.706092    29A     -0.647566    30A     -0.647566  
      31A     -0.580589    32A     -0.580589    33A     -0.574248  
      34A     -0.574248    35A     -0.496990    36A     -0.496990  
      37A     -0.434165    38A     -0.434165    39A     -0.415733  
      40A     -0.415733    41A     -0.359803    42A     -0.359803  

    Virtual:                                                              

      43A      0.034613    44A      0.034614    45A      0.040851  
      46A      0.040851    47A      0.048507    48A      0.048512  
      49A      0.058713    50A      0.058714    51A      0.067232  
      52A      0.067232    53A      0.099540    54A      0.099540  
      55A      0.101067    56A      0.101067    57A      0.114321  
      58A      0.114321    59A      0.115073    60A      0.115073  
      61A      0.123897    62A      0.123903    63A      0.125445  
      64A      0.125445    65A      0.128782    66A      0.128782  
      67A      0.133005    68A      0.133005    69A      0.158314  
      70A      0.158314    71A      0.161200    72A      0.161201  
      73A      0.161449    74A      0.161450    75A      0.164031  
      76A      0.164044    77A      0.175300    78A      0.175301  
      79A      0.187039    80A      0.187039    81A      0.204025  
      82A      0.204026    83A      0.212662    84A      0.212664  
      85A      0.250640    86A      0.250640    87A      0.267882  
      88A      0.267882    89A      0.278178    90A      0.278178  
      91A      0.287936    92A      0.287936    93A      0.293328  
      94A      0.293328    95A      0.295873    96A      0.295884  
      97A      0.314955    98A      0.314955    99A      0.320578  
     100A      0.320578   101A      0.355551   102A      0.355551  
     103A      0.358028   104A      0.358028   105A      0.364783  
     106A      0.364783   107A      0.382701   108A      0.382707  
     109A      0.399009   110A      0.399010   111A      0.410017  
     112A      0.410017   113A      0.425573   114A      0.425574  
     115A      0.434044   116A      0.434044   117A      0.437329  
     118A      0.437329   119A      0.452214   120A      0.452216  
     121A      0.471604   122A      0.471605   123A      0.492260  
     124A      0.492260   125A      0.504981   126A      0.504981  
     127A      0.515033   128A      0.515033   129A      0.524668  
     130A      0.524668   131A      0.528788   132A      0.528789  
     133A      0.554698   134A      0.554698   135A      0.570656  
     136A      0.570656   137A      0.587657   138A      0.587657  
     139A      0.591628   140A      0.591628   141A      0.593921  
     142A      0.593921   143A      0.609051   144A      0.609051  
     145A      0.643641   146A      0.643641   147A      0.644440  
     148A      0.644442   149A      0.685258   150A      0.685258  
     151A      0.687879   152A      0.687879   153A      0.690051  
     154A      0.690052   155A      0.690464   156A      0.690464  
     157A      0.694948   158A      0.694948   159A      0.703949  
     160A      0.703954   161A      0.746677   162A      0.746677  
     163A      0.754937   164A      0.754937   165A      0.767088  
     166A      0.767088   167A      0.781528   168A      0.781528  
     169A      0.799935   170A      0.799935   171A      0.802830  
     172A      0.802830   173A      0.819138   174A      0.819138  
     175A      0.831193   176A      0.831193   177A      0.847635  
     178A      0.847635   179A      0.880665   180A      0.880665  
     181A      0.886531   182A      0.886531   183A      0.894803  
     184A      0.894803   185A      0.929392   186A      0.929392  
     187A      0.939587   188A      0.939589   189A      0.949428  
     190A      0.949428   191A      0.996774   192A      0.996774  
     193A      0.999032   194A      0.999032   195A      1.013138  
     196A      1.013138   197A      1.033491   198A      1.033492  
     199A      1.051315   200A      1.051315   201A      1.089504  
     202A      1.089504   203A      1.100567   204A      1.100567  
     205A      1.122319   206A      1.122319   207A      1.124166  
     208A      1.124166   209A      1.134483   210A      1.134483  
     211A      1.158861   212A      1.158863   213A      1.173686  
     214A      1.173686   215A      1.235538   216A      1.235538  
     217A      1.238926   218A      1.238926   219A      1.309794  
     220A      1.309795   221A      1.331270   222A      1.331270  
     223A      1.414403   224A      1.414403   225A      1.451649  
     226A      1.451649   227A      1.486260   228A      1.486260  
     229A      1.488197   230A      1.488197   231A      1.499332  
     232A      1.499332   233A      1.502967   234A      1.502967  
     235A      1.518372   236A      1.518372   237A      1.572807  
     238A      1.572807   239A      1.574313   240A      1.574313  
     241A      1.587957   242A      1.587957   243A      1.636103  
     244A      1.636103   245A      1.640625   246A      1.640625  
     247A      1.648340   248A      1.648342   249A      1.676673  
     250A      1.676673   251A      1.717112   252A      1.717112  
     253A      1.746718   254A      1.746718   255A      1.755225  
     256A      1.755225   257A      1.783884   258A      1.783884  
     259A      1.815848   260A      1.815848   261A      1.893444  
     262A      1.893444   263A      1.916258   264A      1.916258  
     265A      1.964950   266A      1.964950   267A      1.987796  
     268A      1.987796   269A      2.031323   270A      2.031323  
     271A      2.091669   272A      2.091669   273A      2.101149  
     274A      2.101149   275A      2.143075   276A      2.143075  
     277A      2.163477   278A      2.163477   279A      2.190609  
     280A      2.190609   281A      2.193423   282A      2.193423  
     283A      2.200501   284A      2.200501   285A      2.202531  
     286A      2.202531   287A      2.227747   288A      2.227747  
     289A      2.312882   290A      2.312882   291A      2.355349  
     292A      2.355349   293A      2.431079   294A      2.431079  
     295A      2.439099   296A      2.439099   297A      2.519500  
     298A      2.519500   299A      2.522516   300A      2.522516  
     301A      2.584889   302A      2.584889   303A      2.606388  
     304A      2.606388   305A      2.665346   306A      2.665346  
     307A      2.675532   308A      2.675532   309A      2.686517  
     310A      2.686517   311A      2.714106   312A      2.714108  
     313A      2.718712   314A      2.718712   315A      2.844136  
     316A      2.844136   317A      2.865883   318A      2.865883  
     319A      2.939318   320A      2.939318   321A      3.001977  
     322A      3.001977   323A      3.017994   324A      3.017994  
     325A      3.032308   326A      3.032309   327A      3.094258  
     328A      3.094258   329A      3.220437   330A      3.220438  
     331A      3.256101   332A      3.256101   333A      3.285002  
     334A      3.285002   335A      3.366261   336A      3.366262  
     337A      3.413488   338A      3.413488   339A      3.515042  
     340A      3.515042   341A      3.590776   342A      3.590776  
     343A      3.627890   344A      3.627890   345A      3.977357  
     346A      3.977357   347A      4.253606   348A      4.253607  

    Final Occupation by Irrep:
              A 
    DOCC [    42 ]

  @DF-RHF Final Energy:  -525.27988679847101

   => Energetics <=

    Nuclear Repulsion Energy =            472.1035817182355458
    One-Electron Energy =               -1644.9292663597884712
    Two-Electron Energy =                 647.5457978430819139
    Total Energy =                       -525.2798867984710114

Computation Completed


Properties will be evaluated at   0.000000,   0.000000,   0.000000 [a0]

Properties computed using the SCF density matrix

  Nuclear Dipole Moment: [e a0]
     X: -1370.1231      Y:  -381.9742      Z:  -260.4838

  Electronic Dipole Moment: [e a0]
     X:  1370.1231      Y:   381.9742      Z:   260.4838

  Dipole Moment: [e a0]
     X:     0.0000      Y:    -0.0000      Z:    -0.0000     Total:     0.0000

  Dipole Moment: [D]
     X:     0.0000      Y:    -0.0000      Z:    -0.0000     Total:     0.0000


*** tstop() called on atl1-1-01-013-9-r.pace.gatech.edu at Mon Nov 29 16:10:57 2021
Module time:
	user time   =      28.27 seconds =       0.47 minutes
	system time =       1.07 seconds =       0.02 minutes
	total time  =         15 seconds =       0.25 minutes
Total time:
	user time   =      28.27 seconds =       0.47 minutes
	system time =       1.07 seconds =       0.02 minutes
	total time  =         15 seconds =       0.25 minutes

  //>>>>>>>>>>>>>>>>>>>>>>>>>>>>>>>>>>>//
  //            Monomer A HF           //
  //<<<<<<<<<<<<<<<<<<<<<<<<<<<<<<<<<<<//


*** tstart() called on atl1-1-01-013-9-r.pace.gatech.edu
*** at Mon Nov 29 16:10:57 2021

   => Loading Basis Set <=

    Name: AUG-CC-PVDZ
    Role: ORBITAL
    Keyword: BASIS
    atoms 1-2, 11-12  entry N          line   218 file /storage/home/hhive1/csargent30/data/miniconda3/envs/psi4/share/psi4/basis/aug-cc-pvdz.gbs 
    atoms 3-6, 13-16  entry H          line    40 file /storage/home/hhive1/csargent30/data/miniconda3/envs/psi4/share/psi4/basis/aug-cc-pvdz.gbs 
    atoms 7-10, 17-20 entry C          line   182 file /storage/home/hhive1/csargent30/data/miniconda3/envs/psi4/share/psi4/basis/aug-cc-pvdz.gbs 


         ---------------------------------------------------------
                                   SCF
               by Justin Turney, Rob Parrish, Andy Simmonett
                          and Daniel G. A. Smith
                              RHF Reference
                        2 Threads,   6675 MiB Core
         ---------------------------------------------------------

  ==> Geometry <==

    Molecular point group: c1
    Full point group: C1

    Geometry (in Bohr), charge = 0, multiplicity = 1:

       Center              X                  Y                   Z               Mass       
    ------------   -----------------  -----------------  -----------------  -----------------
         N           -1.330847580000     0.980326580000     0.426270370000    14.003074004430
         N            3.953773330000     0.980326580000     0.426270370000    14.003074004430
         H            3.567136740000     4.352185690000    -0.942309730000     1.007825032230
         H           -0.944210980000     4.352185690000    -0.942309730000     1.007825032230
         H           -0.944210980000    -2.391532530000     1.794850470000     1.007825032230
         H            3.567136740000    -2.391532530000     1.794850470000     1.007825032230
         C            2.622925760000     2.940979740000    -0.426270370000    12.000000000000
         C            0.000000000000     2.940979740000    -0.426270370000    12.000000000000
         C            0.000000000000    -0.980326580000     1.278811120000    12.000000000000
         C            2.622925760000    -0.980326580000     1.278811120000    12.000000000000
      Gh(N)         -36.575751600000   -10.074949200000    -6.628266220000    14.003074004430
      Gh(N)         -31.291130690000   -10.074949200000    -6.628266220000    14.003074004430
      Gh(H)         -31.677767280000    -6.703090090000    -7.996846330000     1.007825032230
      Gh(H)         -36.189115000000    -6.703090090000    -7.996846330000     1.007825032230
      Gh(H)         -36.189115000000   -13.446808310000    -5.259686120000     1.007825032230
      Gh(H)         -31.677767280000   -13.446808310000    -5.259686120000     1.007825032230
      Gh(C)         -32.621978260000    -8.114296040000    -7.480806970000    12.000000000000
      Gh(C)         -35.244904020000    -8.114296040000    -7.480806970000    12.000000000000
      Gh(C)         -35.244904020000   -12.035602360000    -5.775725480000    12.000000000000
      Gh(C)         -32.621978260000   -12.035602360000    -5.775725480000    12.000000000000

  Running in c1 symmetry.

  Rotational constants: A =      0.09694  B =      0.00058  C =      0.00057 [cm^-1]
  Rotational constants: A =   2906.19045  B =     17.25234  C =     17.16868 [MHz]
  Nuclear repulsion =  212.551731110485349

  Charge       = 0
  Multiplicity = 1
  Electrons    = 42
  Nalpha       = 21
  Nbeta        = 21

  ==> Algorithm <==

  SCF Algorithm Type is DF.
  DIIS enabled.
  MOM disabled.
  Fractional occupation disabled.
  Guess Type is SAD.
  Energy threshold   = 1.00e-10
  Density threshold  = 1.00e-10
  Integral threshold = 1.00e-12

  ==> Primary Basis <==

  Basis Set: AUG-CC-PVDZ
    Blend: AUG-CC-PVDZ
    Number of shells: 148
    Number of basis functions: 348
    Number of Cartesian functions: 372
    Spherical Harmonics?: true
    Max angular momentum: 2

   => Loading Basis Set <=

    Name: (AUG-CC-PVDZ AUX)
    Role: JKFIT
    Keyword: DF_BASIS_SCF
    atoms 1-2, 11-12  entry N          line   212 file /storage/home/hhive1/csargent30/data/miniconda3/envs/psi4/share/psi4/basis/aug-cc-pvdz-jkfit.gbs 
    atoms 3-6, 13-16  entry H          line    70 file /storage/home/hhive1/csargent30/data/miniconda3/envs/psi4/share/psi4/basis/aug-cc-pvdz-jkfit.gbs 
    atoms 7-10, 17-20 entry C          line   154 file /storage/home/hhive1/csargent30/data/miniconda3/envs/psi4/share/psi4/basis/aug-cc-pvdz-jkfit.gbs 

  ==> Integral Setup <==

  ==> DiskDFJK: Density-Fitted J/K Matrices <==

    J tasked:                  Yes
    K tasked:                  Yes
    wK tasked:                  No
    OpenMP threads:              2
    Integrals threads:           2
    Memory [MiB]:             5006
    Algorithm:                Core
    Integral Cache:           LOAD
    Schwarz Cutoff:          1E-12
    Fitting Condition:       1E-10

   => Auxiliary Basis Set <=

  Basis Set: (AUG-CC-PVDZ AUX)
    Blend: AUG-CC-PVDZ-JKFIT
    Number of shells: 432
    Number of basis functions: 1288
    Number of Cartesian functions: 1492
    Spherical Harmonics?: true
    Max angular momentum: 3

  Minimum eigenvalue in the overlap matrix is 9.4896405226E-06.
  Reciprocal condition number of the overlap matrix is 7.4016084821E-07.
    Using symmetric orthogonalization.

  ==> Pre-Iterations <==

  SCF Guess: Superposition of Atomic Densities via on-the-fly atomic UHF (no occupation information).

   -------------------------
    Irrep   Nso     Nmo    
   -------------------------
     A        348     348 
   -------------------------
    Total     348     348
   -------------------------

  ==> Iterations <==

                           Total Energy        Delta E     RMS |[F,P]|

   @DF-RHF iter SAD:  -262.32523125613602   -2.62325e+02   0.00000e+00 
   @DF-RHF iter   1:  -262.53940797951526   -2.14177e-01   1.11985e-03 DIIS
   @DF-RHF iter   2:  -262.62878837193284   -8.93804e-02   4.10664e-04 DIIS
   @DF-RHF iter   3:  -262.63862291650980   -9.83454e-03   1.28248e-04 DIIS
   @DF-RHF iter   4:  -262.63984766978450   -1.22475e-03   3.77599e-05 DIIS
   @DF-RHF iter   5:  -262.63993727024479   -8.96005e-05   7.55558e-06 DIIS
   @DF-RHF iter   6:  -262.63994382050458   -6.55026e-06   2.45264e-06 DIIS
   @DF-RHF iter   7:  -262.63994477287810   -9.52374e-07   6.40130e-07 DIIS
   @DF-RHF iter   8:  -262.63994484676630   -7.38882e-08   9.91693e-08 DIIS
   @DF-RHF iter   9:  -262.63994484875167   -1.98537e-09   1.88228e-08 DIIS
   @DF-RHF iter  10:  -262.63994484882221   -7.05427e-11   3.19151e-09 DIIS
   @DF-RHF iter  11:  -262.63994484882471   -2.50111e-12   5.22317e-10 DIIS
   @DF-RHF iter  12:  -262.63994484882551   -7.95808e-13   9.54299e-11 DIIS
  Energy and wave function converged.


  ==> Post-Iterations <==

    Orbital Energies [Eh]
    ---------------------

    Doubly Occupied:                                                      

       1A    -15.598072     2A    -15.598053     3A    -11.274239  
       4A    -11.274194     5A    -11.272975     6A    -11.272969  
       7A     -1.313347     8A     -1.224176     9A     -1.076803  
      10A     -0.922662    11A     -0.919282    12A     -0.760637  
      13A     -0.738402    14A     -0.706214    15A     -0.647687  
      16A     -0.580711    17A     -0.574369    18A     -0.497113  
      19A     -0.434288    20A     -0.415855    21A     -0.359924  

    Virtual:                                                              

      22A      0.022480    23A      0.034497    24A      0.039548  
      25A      0.040739    26A      0.041234    27A      0.048383  
      28A      0.058591    29A      0.058898    30A      0.067113  
      31A      0.079725    32A      0.085089    33A      0.099419  
      34A      0.100948    35A      0.104041    36A      0.108560  
      37A      0.108905    38A      0.114201    39A      0.114951  
      40A      0.122540    41A      0.123776    42A      0.125322  
      43A      0.125629    44A      0.128661    45A      0.130988  
      46A      0.132889    47A      0.134195    48A      0.152152  
      49A      0.153078    50A      0.158199    51A      0.159390  
      52A      0.161084    53A      0.161326    54A      0.163914  
      55A      0.175179    56A      0.176791    57A      0.186918  
      58A      0.197850    59A      0.203908    60A      0.203947  
      61A      0.206707    62A      0.212538    63A      0.222425  
      64A      0.233662    65A      0.239489    66A      0.250517  
      67A      0.255268    68A      0.267756    69A      0.270825  
      70A      0.278056    71A      0.287812    72A      0.293207  
      73A      0.295749    74A      0.302364    75A      0.314832  
      76A      0.320457    77A      0.320686    78A      0.328204  
      79A      0.331346    80A      0.344170    81A      0.355428  
      82A      0.357908    83A      0.364661    84A      0.380545  
      85A      0.382583    86A      0.385679    87A      0.398891  
      88A      0.401320    89A      0.409895    90A      0.419318  
      91A      0.424992    92A      0.425453    93A      0.433925  
      94A      0.437212    95A      0.441977    96A      0.452092  
      97A      0.460701    98A      0.461148    99A      0.471483  
     100A      0.476130   101A      0.478865   102A      0.492140  
     103A      0.504862   104A      0.507865   105A      0.514914  
     106A      0.523813   107A      0.524547   108A      0.528668  
     109A      0.535775   110A      0.554577   111A      0.557890  
     112A      0.561557   113A      0.564540   114A      0.570535  
     115A      0.581950   116A      0.587535   117A      0.591506  
     118A      0.593799   119A      0.596055   120A      0.608929  
     121A      0.615187   122A      0.620206   123A      0.636410  
     124A      0.643517   125A      0.644321   126A      0.649399  
     127A      0.651534   128A      0.679458   129A      0.685136  
     130A      0.685361   131A      0.687758   132A      0.689932  
     133A      0.690342   134A      0.694828   135A      0.703829  
     136A      0.719932   137A      0.728435   138A      0.746558  
     139A      0.746832   140A      0.754817   141A      0.766965  
     142A      0.775726   143A      0.781406   144A      0.793676  
     145A      0.799815   146A      0.802710   147A      0.811139  
     148A      0.812022   149A      0.819016   150A      0.824798  
     151A      0.831071   152A      0.847513   153A      0.848108  
     154A      0.849230   155A      0.868650   156A      0.880544  
     157A      0.886410   158A      0.888193   159A      0.894682  
     160A      0.906148   161A      0.929157   162A      0.929272  
     163A      0.939466   164A      0.947736   165A      0.949307  
     166A      0.970823   167A      0.976981   168A      0.986684  
     169A      0.996652   170A      0.998908   171A      1.013015  
     172A      1.032464   173A      1.033370   174A      1.046974  
     175A      1.051194   176A      1.076309   177A      1.089381  
     178A      1.090324   179A      1.100445   180A      1.122199  
     181A      1.124044   182A      1.130708   183A      1.134362  
     184A      1.140310   185A      1.158740   186A      1.168633  
     187A      1.170721   188A      1.173565   189A      1.192253  
     190A      1.193286   191A      1.200519   192A      1.222361  
     193A      1.235416   194A      1.238804   195A      1.251074  
     196A      1.307603   197A      1.309674   198A      1.318307  
     199A      1.326459   200A      1.329657   201A      1.331148  
     202A      1.346854   203A      1.389258   204A      1.414282  
     205A      1.448436   206A      1.451526   207A      1.455505  
     208A      1.479179   209A      1.486137   210A      1.487251  
     211A      1.488075   212A      1.499211   213A      1.502846  
     214A      1.518252   215A      1.572686   216A      1.574192  
     217A      1.587836   218A      1.635982   219A      1.640505  
     220A      1.648219   221A      1.659287   222A      1.676552  
     223A      1.698113   224A      1.716991   225A      1.746597  
     226A      1.755104   227A      1.783762   228A      1.815727  
     229A      1.893323   230A      1.916137   231A      1.964829  
     232A      1.987674   233A      2.031202   234A      2.070273  
     235A      2.091548   236A      2.101028   237A      2.102810  
     238A      2.119489   239A      2.142953   240A      2.156722  
     241A      2.159236   242A      2.163355   243A      2.190488  
     244A      2.193301   245A      2.194906   246A      2.200380  
     247A      2.202410   248A      2.227626   249A      2.234821  
     250A      2.241249   251A      2.249706   252A      2.310061  
     253A      2.312761   254A      2.319593   255A      2.355229  
     256A      2.384852   257A      2.419256   258A      2.430957  
     259A      2.435460   260A      2.438212   261A      2.438977  
     262A      2.472723   263A      2.486771   264A      2.498367  
     265A      2.519379   266A      2.522395   267A      2.525114  
     268A      2.546042   269A      2.568374   270A      2.584766  
     271A      2.592419   272A      2.606266   273A      2.626019  
     274A      2.665224   275A      2.675409   276A      2.686395  
     277A      2.713985   278A      2.716944   279A      2.718591  
     280A      2.726699   281A      2.767982   282A      2.844014  
     283A      2.865761   284A      2.904083   285A      2.939196  
     286A      2.947274   287A      2.955799   288A      2.973389  
     289A      3.001855   290A      3.017872   291A      3.032186  
     292A      3.058378   293A      3.065276   294A      3.094137  
     295A      3.113916   296A      3.220316   297A      3.245776  
     298A      3.255980   299A      3.284880   300A      3.289730  
     301A      3.322009   302A      3.337791   303A      3.340535  
     304A      3.348707   305A      3.351431   306A      3.366140  
     307A      3.412679   308A      3.413367   309A      3.470834  
     310A      3.502033   311A      3.514920   312A      3.521444  
     313A      3.590655   314A      3.604518   315A      3.605726  
     316A      3.627769   317A      3.700566   318A      3.819004  
     319A      3.830769   320A      3.941050   321A      3.969176  
     322A      3.977236   323A      4.011482   324A      4.194838  
     325A      4.242330   326A      4.253485   327A      4.442069  
     328A      4.546910   329A      4.579358   330A      4.867721  
     331A      4.976223   332A      5.057933   333A      5.261792  
     334A      5.316619   335A      5.630278   336A      5.691405  
     337A      5.827229   338A      5.952712   339A      6.283908  
     340A      6.306969   341A      6.453845   342A      6.631280  
     343A     18.125797   344A     18.208059   345A     19.017654  
     346A     19.343079   347A     25.287143   348A     25.374863  

    Final Occupation by Irrep:
              A 
    DOCC [    21 ]

  @DF-RHF Final Energy:  -262.63994484882551

   => Energetics <=

    Nuclear Repulsion Energy =            212.5517311104853491
    One-Electron Energy =                -775.4594096303993638
    Two-Electron Energy =                 300.2677336710885356
    Total Energy =                       -262.6399448488255075

Computation Completed


Properties will be evaluated at   0.000000,   0.000000,   0.000000 [a0]

Properties computed using the SCF density matrix

  Nuclear Dipole Moment: [e a0]
     X:    55.0814      Y:    41.1737      Z:    17.9034

  Electronic Dipole Moment: [e a0]
     X:   -55.0814      Y:   -41.1737      Z:   -17.9034

  Dipole Moment: [e a0]
     X:    -0.0000      Y:     0.0000      Z:    -0.0000     Total:     0.0000

  Dipole Moment: [D]
     X:    -0.0000      Y:     0.0000      Z:    -0.0000     Total:     0.0000


*** tstop() called on atl1-1-01-013-9-r.pace.gatech.edu at Mon Nov 29 16:11:07 2021
Module time:
	user time   =      17.71 seconds =       0.30 minutes
	system time =       0.55 seconds =       0.01 minutes
	total time  =         10 seconds =       0.17 minutes
Total time:
	user time   =      45.99 seconds =       0.77 minutes
	system time =       1.62 seconds =       0.03 minutes
	total time  =         25 seconds =       0.42 minutes

  //>>>>>>>>>>>>>>>>>>>>>>>>>>>>>>>>>>>//
  //            Monomer B HF           //
  //<<<<<<<<<<<<<<<<<<<<<<<<<<<<<<<<<<<//


*** tstart() called on atl1-1-01-013-9-r.pace.gatech.edu
*** at Mon Nov 29 16:11:07 2021

   => Loading Basis Set <=

    Name: AUG-CC-PVDZ
    Role: ORBITAL
    Keyword: BASIS
    atoms 1-2, 11-12  entry N          line   218 file /storage/home/hhive1/csargent30/data/miniconda3/envs/psi4/share/psi4/basis/aug-cc-pvdz.gbs 
    atoms 3-6, 13-16  entry H          line    40 file /storage/home/hhive1/csargent30/data/miniconda3/envs/psi4/share/psi4/basis/aug-cc-pvdz.gbs 
    atoms 7-10, 17-20 entry C          line   182 file /storage/home/hhive1/csargent30/data/miniconda3/envs/psi4/share/psi4/basis/aug-cc-pvdz.gbs 


         ---------------------------------------------------------
                                   SCF
               by Justin Turney, Rob Parrish, Andy Simmonett
                          and Daniel G. A. Smith
                              RHF Reference
                        2 Threads,   6675 MiB Core
         ---------------------------------------------------------

  ==> Geometry <==

    Molecular point group: c1
    Full point group: C1

    Geometry (in Bohr), charge = 0, multiplicity = 1:

       Center              X                  Y                   Z               Mass       
    ------------   -----------------  -----------------  -----------------  -----------------
      Gh(N)          -1.330847580000     0.980326580000     0.426270370000    14.003074004430
      Gh(N)           3.953773330000     0.980326580000     0.426270370000    14.003074004430
      Gh(H)           3.567136740000     4.352185690000    -0.942309730000     1.007825032230
      Gh(H)          -0.944210980000     4.352185690000    -0.942309730000     1.007825032230
      Gh(H)          -0.944210980000    -2.391532530000     1.794850470000     1.007825032230
      Gh(H)           3.567136740000    -2.391532530000     1.794850470000     1.007825032230
      Gh(C)           2.622925760000     2.940979740000    -0.426270370000    12.000000000000
      Gh(C)           0.000000000000     2.940979740000    -0.426270370000    12.000000000000
      Gh(C)           0.000000000000    -0.980326580000     1.278811120000    12.000000000000
      Gh(C)           2.622925760000    -0.980326580000     1.278811120000    12.000000000000
         N          -36.575751600000   -10.074949200000    -6.628266220000    14.003074004430
         N          -31.291130690000   -10.074949200000    -6.628266220000    14.003074004430
         H          -31.677767280000    -6.703090090000    -7.996846330000     1.007825032230
         H          -36.189115000000    -6.703090090000    -7.996846330000     1.007825032230
         H          -36.189115000000   -13.446808310000    -5.259686120000     1.007825032230
         H          -31.677767280000   -13.446808310000    -5.259686120000     1.007825032230
         C          -32.621978260000    -8.114296040000    -7.480806970000    12.000000000000
         C          -35.244904020000    -8.114296040000    -7.480806970000    12.000000000000
         C          -35.244904020000   -12.035602360000    -5.775725480000    12.000000000000
         C          -32.621978260000   -12.035602360000    -5.775725480000    12.000000000000

  Running in c1 symmetry.

  Rotational constants: A =      0.09694  B =      0.00058  C =      0.00057 [cm^-1]
  Rotational constants: A =   2906.19045  B =     17.25234  C =     17.16868 [MHz]
  Nuclear repulsion =  212.551731091174616

  Charge       = 0
  Multiplicity = 1
  Electrons    = 42
  Nalpha       = 21
  Nbeta        = 21

  ==> Algorithm <==

  SCF Algorithm Type is DF.
  DIIS enabled.
  MOM disabled.
  Fractional occupation disabled.
  Guess Type is SAD.
  Energy threshold   = 1.00e-10
  Density threshold  = 1.00e-10
  Integral threshold = 1.00e-12

  ==> Primary Basis <==

  Basis Set: AUG-CC-PVDZ
    Blend: AUG-CC-PVDZ
    Number of shells: 148
    Number of basis functions: 348
    Number of Cartesian functions: 372
    Spherical Harmonics?: true
    Max angular momentum: 2

   => Loading Basis Set <=

    Name: (AUG-CC-PVDZ AUX)
    Role: JKFIT
    Keyword: DF_BASIS_SCF
    atoms 1-2, 11-12  entry N          line   212 file /storage/home/hhive1/csargent30/data/miniconda3/envs/psi4/share/psi4/basis/aug-cc-pvdz-jkfit.gbs 
    atoms 3-6, 13-16  entry H          line    70 file /storage/home/hhive1/csargent30/data/miniconda3/envs/psi4/share/psi4/basis/aug-cc-pvdz-jkfit.gbs 
    atoms 7-10, 17-20 entry C          line   154 file /storage/home/hhive1/csargent30/data/miniconda3/envs/psi4/share/psi4/basis/aug-cc-pvdz-jkfit.gbs 

  ==> Integral Setup <==

  ==> DiskDFJK: Density-Fitted J/K Matrices <==

    J tasked:                  Yes
    K tasked:                  Yes
    wK tasked:                  No
    OpenMP threads:              2
    Integrals threads:           2
    Memory [MiB]:             5006
    Algorithm:                Core
    Integral Cache:           LOAD
    Schwarz Cutoff:          1E-12
    Fitting Condition:       1E-10

   => Auxiliary Basis Set <=

  Basis Set: (AUG-CC-PVDZ AUX)
    Blend: AUG-CC-PVDZ-JKFIT
    Number of shells: 432
    Number of basis functions: 1288
    Number of Cartesian functions: 1492
    Spherical Harmonics?: true
    Max angular momentum: 3

  Minimum eigenvalue in the overlap matrix is 9.4896405226E-06.
  Reciprocal condition number of the overlap matrix is 7.4016084821E-07.
    Using symmetric orthogonalization.

  ==> Pre-Iterations <==

  SCF Guess: Superposition of Atomic Densities via on-the-fly atomic UHF (no occupation information).

   -------------------------
    Irrep   Nso     Nmo    
   -------------------------
     A        348     348 
   -------------------------
    Total     348     348
   -------------------------

  ==> Iterations <==

                           Total Energy        Delta E     RMS |[F,P]|

   @DF-RHF iter SAD:  -262.32523125888463   -2.62325e+02   0.00000e+00 
   @DF-RHF iter   1:  -262.53940798393154   -2.14177e-01   1.11985e-03 DIIS
   @DF-RHF iter   2:  -262.62878837635498   -8.93804e-02   4.10664e-04 DIIS
   @DF-RHF iter   3:  -262.63862292095075   -9.83454e-03   1.28248e-04 DIIS
   @DF-RHF iter   4:  -262.63984767422676   -1.22475e-03   3.77599e-05 DIIS
   @DF-RHF iter   5:  -262.63993727468755   -8.96005e-05   7.55558e-06 DIIS
   @DF-RHF iter   6:  -262.63994382494707   -6.55026e-06   2.45264e-06 DIIS
   @DF-RHF iter   7:  -262.63994477732092   -9.52374e-07   6.40130e-07 DIIS
   @DF-RHF iter   8:  -262.63994485120810   -7.38872e-08   9.91693e-08 DIIS
   @DF-RHF iter   9:  -262.63994485319472   -1.98662e-09   1.88228e-08 DIIS
   @DF-RHF iter  10:  -262.63994485326504   -7.03153e-11   3.19151e-09 DIIS
   @DF-RHF iter  11:  -262.63994485326793   -2.89901e-12   5.22318e-10 DIIS
   @DF-RHF iter  12:  -262.63994485326759    3.41061e-13   9.54483e-11 DIIS
  Energy and wave function converged.


  ==> Post-Iterations <==

    Orbital Energies [Eh]
    ---------------------

    Doubly Occupied:                                                      

       1A    -15.598072     2A    -15.598053     3A    -11.274239  
       4A    -11.274194     5A    -11.272975     6A    -11.272969  
       7A     -1.313347     8A     -1.224176     9A     -1.076803  
      10A     -0.922662    11A     -0.919282    12A     -0.760637  
      13A     -0.738402    14A     -0.706214    15A     -0.647687  
      16A     -0.580711    17A     -0.574369    18A     -0.497113  
      19A     -0.434288    20A     -0.415855    21A     -0.359924  

    Virtual:                                                              

      22A      0.022480    23A      0.034497    24A      0.039548  
      25A      0.040739    26A      0.041234    27A      0.048383  
      28A      0.058591    29A      0.058898    30A      0.067113  
      31A      0.079725    32A      0.085089    33A      0.099419  
      34A      0.100948    35A      0.104041    36A      0.108560  
      37A      0.108905    38A      0.114201    39A      0.114951  
      40A      0.122540    41A      0.123776    42A      0.125322  
      43A      0.125629    44A      0.128661    45A      0.130988  
      46A      0.132889    47A      0.134195    48A      0.152152  
      49A      0.153078    50A      0.158199    51A      0.159390  
      52A      0.161084    53A      0.161326    54A      0.163914  
      55A      0.175179    56A      0.176791    57A      0.186918  
      58A      0.197850    59A      0.203908    60A      0.203947  
      61A      0.206707    62A      0.212538    63A      0.222425  
      64A      0.233662    65A      0.239489    66A      0.250517  
      67A      0.255268    68A      0.267756    69A      0.270825  
      70A      0.278057    71A      0.287812    72A      0.293207  
      73A      0.295749    74A      0.302364    75A      0.314832  
      76A      0.320457    77A      0.320686    78A      0.328204  
      79A      0.331346    80A      0.344169    81A      0.355428  
      82A      0.357908    83A      0.364661    84A      0.380545  
      85A      0.382583    86A      0.385679    87A      0.398891  
      88A      0.401320    89A      0.409895    90A      0.419318  
      91A      0.424992    92A      0.425453    93A      0.433925  
      94A      0.437212    95A      0.441977    96A      0.452092  
      97A      0.460701    98A      0.461148    99A      0.471483  
     100A      0.476130   101A      0.478865   102A      0.492140  
     103A      0.504862   104A      0.507865   105A      0.514914  
     106A      0.523813   107A      0.524547   108A      0.528668  
     109A      0.535775   110A      0.554577   111A      0.557890  
     112A      0.561557   113A      0.564540   114A      0.570535  
     115A      0.581950   116A      0.587535   117A      0.591506  
     118A      0.593799   119A      0.596055   120A      0.608929  
     121A      0.615187   122A      0.620206   123A      0.636410  
     124A      0.643517   125A      0.644321   126A      0.649399  
     127A      0.651534   128A      0.679458   129A      0.685136  
     130A      0.685361   131A      0.687758   132A      0.689932  
     133A      0.690342   134A      0.694828   135A      0.703830  
     136A      0.719932   137A      0.728435   138A      0.746558  
     139A      0.746832   140A      0.754817   141A      0.766965  
     142A      0.775726   143A      0.781406   144A      0.793676  
     145A      0.799815   146A      0.802710   147A      0.811139  
     148A      0.812022   149A      0.819016   150A      0.824798  
     151A      0.831071   152A      0.847513   153A      0.848108  
     154A      0.849230   155A      0.868650   156A      0.880544  
     157A      0.886410   158A      0.888193   159A      0.894682  
     160A      0.906148   161A      0.929157   162A      0.929272  
     163A      0.939466   164A      0.947736   165A      0.949307  
     166A      0.970823   167A      0.976981   168A      0.986684  
     169A      0.996652   170A      0.998908   171A      1.013015  
     172A      1.032464   173A      1.033370   174A      1.046974  
     175A      1.051194   176A      1.076309   177A      1.089381  
     178A      1.090324   179A      1.100445   180A      1.122199  
     181A      1.124044   182A      1.130708   183A      1.134362  
     184A      1.140310   185A      1.158740   186A      1.168633  
     187A      1.170721   188A      1.173565   189A      1.192253  
     190A      1.193286   191A      1.200519   192A      1.222361  
     193A      1.235416   194A      1.238804   195A      1.251074  
     196A      1.307603   197A      1.309674   198A      1.318307  
     199A      1.326459   200A      1.329657   201A      1.331148  
     202A      1.346854   203A      1.389258   204A      1.414282  
     205A      1.448436   206A      1.451526   207A      1.455505  
     208A      1.479179   209A      1.486137   210A      1.487251  
     211A      1.488075   212A      1.499211   213A      1.502846  
     214A      1.518252   215A      1.572686   216A      1.574192  
     217A      1.587836   218A      1.635982   219A      1.640505  
     220A      1.648219   221A      1.659287   222A      1.676552  
     223A      1.698113   224A      1.716991   225A      1.746597  
     226A      1.755104   227A      1.783762   228A      1.815727  
     229A      1.893323   230A      1.916137   231A      1.964829  
     232A      1.987674   233A      2.031202   234A      2.070273  
     235A      2.091548   236A      2.101028   237A      2.102810  
     238A      2.119489   239A      2.142953   240A      2.156722  
     241A      2.159236   242A      2.163355   243A      2.190488  
     244A      2.193301   245A      2.194906   246A      2.200380  
     247A      2.202410   248A      2.227626   249A      2.234821  
     250A      2.241249   251A      2.249706   252A      2.310061  
     253A      2.312761   254A      2.319593   255A      2.355229  
     256A      2.384852   257A      2.419256   258A      2.430957  
     259A      2.435460   260A      2.438212   261A      2.438977  
     262A      2.472723   263A      2.486771   264A      2.498367  
     265A      2.519379   266A      2.522395   267A      2.525114  
     268A      2.546042   269A      2.568374   270A      2.584766  
     271A      2.592419   272A      2.606266   273A      2.626019  
     274A      2.665224   275A      2.675409   276A      2.686395  
     277A      2.713985   278A      2.716944   279A      2.718591  
     280A      2.726699   281A      2.767982   282A      2.844014  
     283A      2.865761   284A      2.904083   285A      2.939196  
     286A      2.947274   287A      2.955799   288A      2.973389  
     289A      3.001855   290A      3.017872   291A      3.032186  
     292A      3.058378   293A      3.065276   294A      3.094137  
     295A      3.113916   296A      3.220316   297A      3.245776  
     298A      3.255980   299A      3.284880   300A      3.289730  
     301A      3.322009   302A      3.337791   303A      3.340535  
     304A      3.348707   305A      3.351431   306A      3.366140  
     307A      3.412679   308A      3.413367   309A      3.470834  
     310A      3.502033   311A      3.514920   312A      3.521444  
     313A      3.590655   314A      3.604518   315A      3.605726  
     316A      3.627769   317A      3.700566   318A      3.819004  
     319A      3.830769   320A      3.941050   321A      3.969176  
     322A      3.977236   323A      4.011482   324A      4.194838  
     325A      4.242330   326A      4.253485   327A      4.442069  
     328A      4.546910   329A      4.579358   330A      4.867721  
     331A      4.976223   332A      5.057933   333A      5.261792  
     334A      5.316619   335A      5.630278   336A      5.691405  
     337A      5.827229   338A      5.952712   339A      6.283908  
     340A      6.306969   341A      6.453845   342A      6.631280  
     343A     18.125797   344A     18.208059   345A     19.017654  
     346A     19.343079   347A     25.287143   348A     25.374863  

    Final Occupation by Irrep:
              A 
    DOCC [    21 ]

  @DF-RHF Final Energy:  -262.63994485326759

   => Energetics <=

    Nuclear Repulsion Energy =            212.5517310911746165
    One-Electron Energy =                -775.4594095961875837
    Two-Electron Energy =                 300.2677336517454023
    Total Energy =                       -262.6399448532675933

Computation Completed


Properties will be evaluated at   0.000000,   0.000000,   0.000000 [a0]

Properties computed using the SCF density matrix

  Nuclear Dipole Moment: [e a0]
     X: -1425.2045      Y:  -423.1479      Z:  -278.3872

  Electronic Dipole Moment: [e a0]
     X:  1425.2045      Y:   423.1479      Z:   278.3872

  Dipole Moment: [e a0]
     X:     0.0000      Y:    -0.0000      Z:    -0.0000     Total:     0.0000

  Dipole Moment: [D]
     X:     0.0000      Y:    -0.0000      Z:    -0.0000     Total:     0.0000


*** tstop() called on atl1-1-01-013-9-r.pace.gatech.edu at Mon Nov 29 16:11:17 2021
Module time:
	user time   =      17.64 seconds =       0.29 minutes
	system time =       0.53 seconds =       0.01 minutes
	total time  =         10 seconds =       0.17 minutes
Total time:
	user time   =      63.64 seconds =       1.06 minutes
	system time =       2.15 seconds =       0.04 minutes
	total time  =         35 seconds =       0.58 minutes
  Constructing Basis Sets for SAPT...

   => Loading Basis Set <=

    Name: (AUG-CC-PVDZ AUX)
    Role: RIFIT
    Keyword: DF_BASIS_SAPT
    atoms 1-2, 11-12  entry N          line   158 file /storage/home/hhive1/csargent30/data/miniconda3/envs/psi4/share/psi4/basis/aug-cc-pvdz-ri.gbs 
    atoms 3-6, 13-16  entry H          line    30 file /storage/home/hhive1/csargent30/data/miniconda3/envs/psi4/share/psi4/basis/aug-cc-pvdz-ri.gbs 
    atoms 7-10, 17-20 entry C          line   112 file /storage/home/hhive1/csargent30/data/miniconda3/envs/psi4/share/psi4/basis/aug-cc-pvdz-ri.gbs 


  //>>>>>>>>>>>>>>>>>>>>>>>>>>>>>>>>>>>//
  //               SAPT0               //
  //<<<<<<<<<<<<<<<<<<<<<<<<<<<<<<<<<<<//


*** tstart() called on atl1-1-01-013-9-r.pace.gatech.edu
*** at Mon Nov 29 16:11:17 2021

        SAPT0  
    Ed Hohenstein
     6 June 2009

      Orbital Information
  --------------------------
    NSO        =       348
    NMO        =       348
    NRI        =      1048
    NOCC A     =        21
    NOCC B     =        21
    FOCC A     =         6
    FOCC B     =         6
    NVIR A     =       327
    NVIR B     =       327

    Elst10,r            =     0.000002880919 [Eh]
    Exch10              =     0.000000000000 [Eh]
    Exch10 (S^2)        =     0.000000000000 [Eh]

    Iter     Energy [mEh]          dE [mEh]         Residual      Time [s]
       1      -0.00000333       0.000003328       0.021306764             1
       2      -0.00000297      -0.000000357       0.004841996             1
       3      -0.00000326       0.000000291       0.001929289             1
       4      -0.00000331       0.000000048       0.000624684             2
       5      -0.00000330      -0.000000007       0.000358348             2
       6      -0.00000330      -0.000000006       0.000136977             3
       7      -0.00000330       0.000000001       0.000056120             3
       8      -0.00000330       0.000000001       0.000017232             3
       9      -0.00000330      -0.000000000       0.000005258             4
      10      -0.00000330      -0.000000000       0.000001554             4
      11      -0.00000330       0.000000000       0.000000642             4

    CHF Iterations converged


    Iter     Energy [mEh]          dE [mEh]         Residual      Time [s]
       1      -0.00000333       0.000003328       0.021306764             1
       2      -0.00000297      -0.000000357       0.004841996             1
       3      -0.00000326       0.000000291       0.001929289             2
       4      -0.00000331       0.000000048       0.000624684             2
       5      -0.00000330      -0.000000007       0.000358348             2
       6      -0.00000330      -0.000000006       0.000136977             3
       7      -0.00000330       0.000000001       0.000056120             3
       8      -0.00000330       0.000000001       0.000017232             3
       9      -0.00000330      -0.000000000       0.000005258             4
      10      -0.00000330      -0.000000000       0.000001554             4
      11      -0.00000330       0.000000000       0.000000642             4

    CHF Iterations converged

    Ind20,r (A<-B)      =    -0.000000003299 [Eh]
    Ind20,r (B<-A)      =    -0.000000003299 [Eh]
    Ind20,r             =    -0.000000006598 [Eh]
    Exch-Ind20,r (A<-B) =     0.000000000000 [Eh]
    Exch-Ind20,r (B<-A) =     0.000000000000 [Eh]
    Exch-Ind20,r        =     0.000000000000 [Eh]
    Disp20              =    -0.000000661424 [Eh]
    Disp20 (SS)         =    -0.000000330712 [Eh]
    Disp20 (OS)         =    -0.000000330712 [Eh]
    Exch-Disp20         =     0.000000000000 [Eh]
    Exch-Disp20 (SS)    =     0.000000000000 [Eh]
    Exch-Disp20 (OS)    =     0.000000000000 [Eh]

    SAPT Results 
  --------------------------------------------------------------------------------------------------------
    Electrostatics                  0.00288092 [mEh]       0.00180780 [kcal/mol]       0.00756385 [kJ/mol]
      Elst10,r                      0.00288092 [mEh]       0.00180780 [kcal/mol]       0.00756385 [kJ/mol]

    Exchange                        0.00000000 [mEh]       0.00000000 [kcal/mol]       0.00000000 [kJ/mol]
      Exch10                        0.00000000 [mEh]       0.00000000 [kcal/mol]       0.00000000 [kJ/mol]
      Exch10(S^2)                   0.00000000 [mEh]       0.00000000 [kcal/mol]       0.00000000 [kJ/mol]

    Induction                       0.00002270 [mEh]       0.00001425 [kcal/mol]       0.00005961 [kJ/mol]
      Ind20,r                      -0.00000660 [mEh]      -0.00000414 [kcal/mol]      -0.00001732 [kJ/mol]
      Exch-Ind20,r                  0.00000000 [mEh]       0.00000000 [kcal/mol]       0.00000000 [kJ/mol]
      delta HF,r (2)                0.00002930 [mEh]       0.00001839 [kcal/mol]       0.00007693 [kJ/mol]

    Dispersion                     -0.00066142 [mEh]      -0.00041505 [kcal/mol]      -0.00173657 [kJ/mol]
      Disp20                       -0.00066142 [mEh]      -0.00041505 [kcal/mol]      -0.00173657 [kJ/mol]
      Exch-Disp20                   0.00000000 [mEh]       0.00000000 [kcal/mol]       0.00000000 [kJ/mol]
      Disp20 (SS)                  -0.00033071 [mEh]      -0.00020753 [kcal/mol]      -0.00086828 [kJ/mol]
      Disp20 (OS)                  -0.00033071 [mEh]      -0.00020753 [kcal/mol]      -0.00086828 [kJ/mol]
      Exch-Disp20 (SS)              0.00000000 [mEh]       0.00000000 [kcal/mol]       0.00000000 [kJ/mol]
      Exch-Disp20 (OS)              0.00000000 [mEh]       0.00000000 [kcal/mol]       0.00000000 [kJ/mol]

  Total HF                          0.00290362 [mEh]       0.00182205 [kcal/mol]       0.00762346 [kJ/mol]
  Total SAPT0                       0.00224220 [mEh]       0.00140700 [kcal/mol]       0.00588689 [kJ/mol]

  Special recipe for scaled SAPT0 (see Manual):
    Electrostatics sSAPT0           0.00288092 [mEh]       0.00180780 [kcal/mol]       0.00756385 [kJ/mol]
    Exchange sSAPT0                 0.00000000 [mEh]       0.00000000 [kcal/mol]       0.00000000 [kJ/mol]
    Induction sSAPT0                0.00002270 [mEh]       0.00001425 [kcal/mol]       0.00005961 [kJ/mol]
    Dispersion sSAPT0              -0.00066142 [mEh]      -0.00041505 [kcal/mol]      -0.00173657 [kJ/mol]
  Total sSAPT0                      0.00224220 [mEh]       0.00140700 [kcal/mol]       0.00588689 [kJ/mol]
  --------------------------------------------------------------------------------------------------------

*** tstop() called on atl1-1-01-013-9-r.pace.gatech.edu at Mon Nov 29 16:12:05 2021
Module time:
	user time   =      38.82 seconds =       0.65 minutes
	system time =       9.28 seconds =       0.15 minutes
	total time  =         48 seconds =       0.80 minutes
Total time:
	user time   =     102.69 seconds =       1.71 minutes
	system time =      11.44 seconds =       0.19 minutes
	total time  =         83 seconds =       1.38 minutes


Warning! sapt0 does not have an associated derived wavefunction.The returned wavefunction is the dimer SCF wavefunction.


    Psi4 stopped on: Monday, 29 November 2021 04:12PM
    Psi4 wall time for execution: 0:01:23.71

*** Psi4 exiting successfully. Buy a developer a beer!
