
    -----------------------------------------------------------------------
          Psi4: An Open-Source Ab Initio Electronic Structure Package
                               Psi4 1.4.1 release

                         Git: Rev {HEAD} cd00f19 


    D. G. A. Smith, L. A. Burns, A. C. Simmonett, R. M. Parrish,
    M. C. Schieber, R. Galvelis, P. Kraus, H. Kruse, R. Di Remigio,
    A. Alenaizan, A. M. James, S. Lehtola, J. P. Misiewicz, M. Scheurer,
    R. A. Shaw, J. B. Schriber, Y. Xie, Z. L. Glick, D. A. Sirianni,
    J. S. O'Brien, J. M. Waldrop, A. Kumar, E. G. Hohenstein,
    B. P. Pritchard, B. R. Brooks, H. F. Schaefer III, A. Yu. Sokolov,
    K. Patkowski, A. E. DePrince III, U. Bozkaya, R. A. King,
    F. A. Evangelista, J. M. Turney, T. D. Crawford, C. D. Sherrill,
    J. Chem. Phys. 152(18) 184108 (2020). https://doi.org/10.1063/5.0006002

                            Additional Code Authors
    E. T. Seidl, C. L. Janssen, E. F. Valeev, M. L. Leininger,
    J. F. Gonthier, R. M. Richard, H. R. McAlexander, M. Saitow, X. Wang,
    P. Verma, and M. H. Lechner

             Previous Authors, Complete List of Code Contributors,
                       and Citations for Specific Modules
    https://github.com/psi4/psi4/blob/master/codemeta.json
    https://github.com/psi4/psi4/graphs/contributors
    http://psicode.org/psi4manual/master/introduction.html#citing-psifour

    -----------------------------------------------------------------------


    Psi4 started on: Monday, 29 November 2021 04:18PM

    Process ID: 25923
    Host:       atl1-1-01-013-11-r.pace.gatech.edu
    PSIDATADIR: /storage/home/hhive1/csargent30/data/miniconda3/envs/psi4/share/psi4
    Memory:     500.0 MiB
    Threads:    2
    
  ==> Input File <==

--------------------------------------------------------------------------
# PSI4 file produced by CrystaLattE

# Generated from:               pyrazine.xyz
# Psithon input for N-mer:      2mer-0+15
# Number of atoms per monomer:  [10, 10]
# Number of replicas:           8
# COM priority:                 3.061057082251e-04
# Minimum COM separations:      7.852 
# Separation priority:          9.314990764041e-04
# Minimum monomer separations:  5.418 
# Cutoff priority:              9.097245290691e-05
# Nuclear repulsion energy:     543.1618853393572

memory 7 GB

molecule Dimer_0_15 {
  N           -1.33084758       0.98032658       0.42627037 
  N            3.95377333       0.98032658       0.42627037 
  H            3.56713674       4.35218569      -0.94230973 
  H           -0.94421098       4.35218569      -0.94230973 
  H           -0.94421098      -2.39153253       1.79485047 
  H            3.56713674      -2.39153253       1.79485047 
  C            2.62292576       2.94097974      -0.42627037 
  C            0.00000000       2.94097974      -0.42627037 
  C            0.00000000      -0.98032658       1.27881112 
  C            2.62292576      -0.98032658       1.27881112 
--
  N          -10.14207358      -4.54731131     -10.15553452 
  N           -4.85745267      -4.54731131     -10.15553452 
  H           -9.75543698      -7.91917042     -11.52411462 
  H           -9.75543698      -1.17545220      -8.78695442 
  H           -5.24408927      -7.91917042     -11.52411462 
  H           -5.24408927      -1.17545220      -8.78695442 
  C           -8.81122601      -6.50796447     -11.00807527 
  C           -8.81122601      -2.58665815      -9.30299378 
  C           -6.18830025      -6.50796447     -11.00807527 
  C           -6.18830025      -2.58665815      -9.30299378 
units = au
no_com
no_reorient
}

set {
  e_convergence 10
  d_convergence 10
  scf_type df
  mp2_type df
  cc_type df
  freeze_core true
}

energy('sapt0/aug-cc-pvdz')

--------------------------------------------------------------------------

  Memory set to   6.519 GiB by Python driver.

Scratch directory: /tmp/

Scratch directory: /tmp/

  //>>>>>>>>>>>>>>>>>>>>>>>>>>>>>>>>>>>//
  //              Dimer HF             //
  //<<<<<<<<<<<<<<<<<<<<<<<<<<<<<<<<<<<//


*** tstart() called on atl1-1-01-013-11-r.pace.gatech.edu
*** at Mon Nov 29 16:18:52 2021

   => Loading Basis Set <=

    Name: AUG-CC-PVDZ
    Role: ORBITAL
    Keyword: BASIS
    atoms 1-2, 11-12  entry N          line   218 file /storage/home/hhive1/csargent30/data/miniconda3/envs/psi4/share/psi4/basis/aug-cc-pvdz.gbs 
    atoms 3-6, 13-16  entry H          line    40 file /storage/home/hhive1/csargent30/data/miniconda3/envs/psi4/share/psi4/basis/aug-cc-pvdz.gbs 
    atoms 7-10, 17-20 entry C          line   182 file /storage/home/hhive1/csargent30/data/miniconda3/envs/psi4/share/psi4/basis/aug-cc-pvdz.gbs 


         ---------------------------------------------------------
                                   SCF
               by Justin Turney, Rob Parrish, Andy Simmonett
                          and Daniel G. A. Smith
                              RHF Reference
                        2 Threads,   6675 MiB Core
         ---------------------------------------------------------

  ==> Geometry <==

    Molecular point group: c1
    Full point group: C1

    Geometry (in Bohr), charge = 0, multiplicity = 1:

       Center              X                  Y                   Z               Mass       
    ------------   -----------------  -----------------  -----------------  -----------------
         N           -1.330847580000     0.980326580000     0.426270370000    14.003074004430
         N            3.953773330000     0.980326580000     0.426270370000    14.003074004430
         H            3.567136740000     4.352185690000    -0.942309730000     1.007825032230
         H           -0.944210980000     4.352185690000    -0.942309730000     1.007825032230
         H           -0.944210980000    -2.391532530000     1.794850470000     1.007825032230
         H            3.567136740000    -2.391532530000     1.794850470000     1.007825032230
         C            2.622925760000     2.940979740000    -0.426270370000    12.000000000000
         C            0.000000000000     2.940979740000    -0.426270370000    12.000000000000
         C            0.000000000000    -0.980326580000     1.278811120000    12.000000000000
         C            2.622925760000    -0.980326580000     1.278811120000    12.000000000000
         N          -10.142073580000    -4.547311310000   -10.155534520000    14.003074004430
         N           -4.857452670000    -4.547311310000   -10.155534520000    14.003074004430
         H           -9.755436980000    -7.919170420000   -11.524114620000     1.007825032230
         H           -9.755436980000    -1.175452200000    -8.786954420000     1.007825032230
         H           -5.244089270000    -7.919170420000   -11.524114620000     1.007825032230
         H           -5.244089270000    -1.175452200000    -8.786954420000     1.007825032230
         C           -8.811226010000    -6.507964470000   -11.008075270000    12.000000000000
         C           -8.811226010000    -2.586658150000    -9.302993780000    12.000000000000
         C           -6.188300250000    -6.507964470000   -11.008075270000    12.000000000000
         C           -6.188300250000    -2.586658150000    -9.302993780000    12.000000000000

  Running in c1 symmetry.

  Rotational constants: A =      0.06532  B =      0.00394  C =      0.00392 [cm^-1]
  Rotational constants: A =   1958.33516  B =    118.17527  C =    117.39300 [MHz]
  Nuclear repulsion =  543.161885377786575

  Charge       = 0
  Multiplicity = 1
  Electrons    = 84
  Nalpha       = 42
  Nbeta        = 42

  ==> Algorithm <==

  SCF Algorithm Type is DF.
  DIIS enabled.
  MOM disabled.
  Fractional occupation disabled.
  Guess Type is SAD.
  Energy threshold   = 1.00e-10
  Density threshold  = 1.00e-10
  Integral threshold = 1.00e-12

  ==> Primary Basis <==

  Basis Set: AUG-CC-PVDZ
    Blend: AUG-CC-PVDZ
    Number of shells: 148
    Number of basis functions: 348
    Number of Cartesian functions: 372
    Spherical Harmonics?: true
    Max angular momentum: 2

   => Loading Basis Set <=

    Name: (AUG-CC-PVDZ AUX)
    Role: JKFIT
    Keyword: DF_BASIS_SCF
    atoms 1-2, 11-12  entry N          line   212 file /storage/home/hhive1/csargent30/data/miniconda3/envs/psi4/share/psi4/basis/aug-cc-pvdz-jkfit.gbs 
    atoms 3-6, 13-16  entry H          line    70 file /storage/home/hhive1/csargent30/data/miniconda3/envs/psi4/share/psi4/basis/aug-cc-pvdz-jkfit.gbs 
    atoms 7-10, 17-20 entry C          line   154 file /storage/home/hhive1/csargent30/data/miniconda3/envs/psi4/share/psi4/basis/aug-cc-pvdz-jkfit.gbs 

  ==> Integral Setup <==

  ==> DiskDFJK: Density-Fitted J/K Matrices <==

    J tasked:                  Yes
    K tasked:                  Yes
    wK tasked:                  No
    OpenMP threads:              2
    Integrals threads:           2
    Memory [MiB]:             5006
    Algorithm:                Core
    Integral Cache:           SAVE
    Schwarz Cutoff:          1E-12
    Fitting Condition:       1E-10

   => Auxiliary Basis Set <=

  Basis Set: (AUG-CC-PVDZ AUX)
    Blend: AUG-CC-PVDZ-JKFIT
    Number of shells: 432
    Number of basis functions: 1288
    Number of Cartesian functions: 1492
    Spherical Harmonics?: true
    Max angular momentum: 3

  Minimum eigenvalue in the overlap matrix is 8.7981218327E-06.
  Reciprocal condition number of the overlap matrix is 6.8242305218E-07.
    Using symmetric orthogonalization.

  ==> Pre-Iterations <==

  SCF Guess: Superposition of Atomic Densities via on-the-fly atomic UHF (no occupation information).

   -------------------------
    Irrep   Nso     Nmo    
   -------------------------
     A        348     348 
   -------------------------
    Total     348     348
   -------------------------

  ==> Iterations <==

                           Total Energy        Delta E     RMS |[F,P]|

   @DF-RHF iter SAD:  -524.65080991144885   -5.24651e+02   0.00000e+00 
   @DF-RHF iter   1:  -525.07900532536507   -4.28195e-01   1.58383e-03 DIIS
   @DF-RHF iter   2:  -525.25777181591843   -1.78766e-01   5.80636e-04 DIIS
   @DF-RHF iter   3:  -525.27743573188104   -1.96639e-02   1.81318e-04 DIIS
   @DF-RHF iter   4:  -525.27988451306408   -2.44878e-03   5.33789e-05 DIIS
   @DF-RHF iter   5:  -525.28006359793051   -1.79085e-04   1.06800e-05 DIIS
   @DF-RHF iter   6:  -525.28007668026544   -1.30823e-05   3.46686e-06 DIIS
   @DF-RHF iter   7:  -525.28007857799105   -1.89773e-06   9.27653e-07 DIIS
   @DF-RHF iter   8:  -525.28007872207854   -1.44087e-07   3.30417e-07 DIIS
   @DF-RHF iter   9:  -525.28007873177989   -9.70135e-09   9.88136e-08 DIIS
   @DF-RHF iter  10:  -525.28007873303443   -1.25453e-09   1.82357e-08 DIIS
   @DF-RHF iter  11:  -525.28007873309059   -5.61613e-11   9.19022e-09 DIIS
   @DF-RHF iter  12:  -525.28007873309855   -7.95808e-12   2.50611e-09 DIIS
   @DF-RHF iter  13:  -525.28007873310048   -1.93268e-12   1.12931e-09 DIIS
   @DF-RHF iter  14:  -525.28007873310128   -7.95808e-13   5.20640e-10 DIIS
   @DF-RHF iter  15:  -525.28007873310139   -1.13687e-13   2.14726e-10 DIIS
   @DF-RHF iter  16:  -525.28007873310116    2.27374e-13   5.15656e-11 DIIS
  Energy and wave function converged.


  ==> Post-Iterations <==

    Orbital Energies [Eh]
    ---------------------

    Doubly Occupied:                                                      

       1A    -15.598579     2A    -15.598280     3A    -15.596980  
       4A    -15.596930     5A    -11.274634     6A    -11.274455  
       7A    -11.273378     8A    -11.273212     9A    -11.273169  
      10A    -11.272971    11A    -11.271922    12A    -11.271727  
      13A     -1.313684    14A     -1.312231    15A     -1.224526  
      16A     -1.223067    17A     -1.077127    18A     -1.075659  
      19A     -0.923010    20A     -0.921533    21A     -0.919609  
      22A     -0.918133    23A     -0.760985    24A     -0.759511  
      25A     -0.738742    26A     -0.737247    27A     -0.706559  
      28A     -0.705087    29A     -0.648016    30A     -0.646544  
      31A     -0.581053    32A     -0.579571    33A     -0.574696  
      34A     -0.573255    35A     -0.497510    36A     -0.496031  
      37A     -0.434656    38A     -0.433204    39A     -0.416238  
      40A     -0.414757    41A     -0.360213    42A     -0.358759  

    Virtual:                                                              

      43A      0.030563    44A      0.036990    45A      0.039639  
      46A      0.043296    47A      0.050853    48A      0.052907  
      49A      0.059021    50A      0.060819    51A      0.068851  
      52A      0.073683    53A      0.096762    54A      0.098510  
      55A      0.101240    56A      0.103489    57A      0.108023  
      58A      0.109451    59A      0.115519    60A      0.118611  
      61A      0.120223    62A      0.123828    63A      0.124890  
      64A      0.129350    65A      0.134991    66A      0.143935  
      67A      0.150055    68A      0.156174    69A      0.158507  
      70A      0.160399    71A      0.160663    72A      0.163379  
      73A      0.166513    74A      0.167787    75A      0.172051  
      76A      0.175975    77A      0.182652    78A      0.187917  
      79A      0.191171    80A      0.202605    81A      0.208580  
      82A      0.209911    83A      0.225629    84A      0.234134  
      85A      0.250924    86A      0.264084    87A      0.268452  
      88A      0.275385    89A      0.276335    90A      0.282151  
      91A      0.294400    92A      0.295709    93A      0.297298  
      94A      0.299973    95A      0.304167    96A      0.310348  
      97A      0.314688    98A      0.319817    99A      0.324012  
     100A      0.332621   101A      0.355299   102A      0.356003  
     103A      0.361028   104A      0.367406   105A      0.369324  
     106A      0.382323   107A      0.386578   108A      0.388172  
     109A      0.400114   110A      0.406018   111A      0.409826  
     112A      0.414462   113A      0.426260   114A      0.427676  
     115A      0.436549   116A      0.439799   117A      0.444025  
     118A      0.445789   119A      0.454157   120A      0.459362  
     121A      0.473827   122A      0.477352   123A      0.492183  
     124A      0.499956   125A      0.509571   126A      0.511746  
     127A      0.519411   128A      0.524855   129A      0.526193  
     130A      0.530189   131A      0.535410   132A      0.545134  
     133A      0.557958   134A      0.560364   135A      0.573338  
     136A      0.574838   137A      0.586692   138A      0.589124  
     139A      0.594007   140A      0.597291   141A      0.603677  
     142A      0.609052   143A      0.612424   144A      0.617572  
     145A      0.644355   146A      0.644895   147A      0.646941  
     148A      0.649772   149A      0.684392   150A      0.684580  
     151A      0.689358   152A      0.690271   153A      0.691627  
     154A      0.692344   155A      0.696170   156A      0.698934  
     157A      0.701033   158A      0.702998   159A      0.705525  
     160A      0.714102   161A      0.747567   162A      0.751053  
     163A      0.755563   164A      0.760411   165A      0.770275  
     166A      0.771356   167A      0.786634   168A      0.791340  
     169A      0.800931   170A      0.802681   171A      0.808251  
     172A      0.809127   173A      0.821989   174A      0.827555  
     175A      0.833999   176A      0.848064   177A      0.852275  
     178A      0.878756   179A      0.883154   180A      0.885287  
     181A      0.887371   182A      0.890954   183A      0.898801  
     184A      0.902483   185A      0.931027   186A      0.936518  
     187A      0.941951   188A      0.945652   189A      0.951106  
     190A      0.954576   191A      0.997231   192A      0.999033  
     193A      1.004497   194A      1.010631   195A      1.015337  
     196A      1.021023   197A      1.036602   198A      1.042723  
     199A      1.054069   200A      1.056190   201A      1.089496  
     202A      1.093233   203A      1.103054   204A      1.105102  
     205A      1.121969   206A      1.125092   207A      1.126750  
     208A      1.127322   209A      1.136172   210A      1.140435  
     211A      1.159619   212A      1.165200   213A      1.176572  
     214A      1.178371   215A      1.235090   216A      1.237633  
     217A      1.239246   218A      1.241167   219A      1.308840  
     220A      1.314548   221A      1.331238   222A      1.335058  
     223A      1.414373   224A      1.416886   225A      1.453528  
     226A      1.454715   227A      1.485988   228A      1.487404  
     229A      1.489897   230A      1.491197   231A      1.499930  
     232A      1.502961   233A      1.506311   234A      1.509753  
     235A      1.518891   236A      1.523631   237A      1.572574  
     238A      1.574025   239A      1.576002   240A      1.579439  
     241A      1.589181   242A      1.598572   243A      1.636525  
     244A      1.638520   245A      1.642721   246A      1.650474  
     247A      1.653857   248A      1.656884   249A      1.677736  
     250A      1.685802   251A      1.720016   252A      1.721468  
     253A      1.748341   254A      1.750696   255A      1.756183  
     256A      1.764878   257A      1.786856   258A      1.790412  
     259A      1.817586   260A      1.819510   261A      1.893150  
     262A      1.898159   263A      1.916712   264A      1.919633  
     265A      1.966587   266A      1.968322   267A      1.989594  
     268A      1.991298   269A      2.032771   270A      2.033009  
     271A      2.091448   272A      2.092990   273A      2.104641  
     274A      2.108177   275A      2.143448   276A      2.145356  
     277A      2.164515   278A      2.165858   279A      2.191779  
     280A      2.192488   281A      2.195088   282A      2.197026  
     283A      2.200831   284A      2.203133   285A      2.206913  
     286A      2.210290   287A      2.228319   288A      2.229861  
     289A      2.315759   290A      2.318018   291A      2.356319  
     292A      2.361849   293A      2.430313   294A      2.434575  
     295A      2.441685   296A      2.444620   297A      2.519917  
     298A      2.522119   299A      2.523444   300A      2.525599  
     301A      2.588836   302A      2.591009   303A      2.606739  
     304A      2.609663   305A      2.666181   306A      2.668233  
     307A      2.676987   308A      2.681296   309A      2.691106  
     310A      2.694779   311A      2.713644   312A      2.718714  
     313A      2.720571   314A      2.723791   315A      2.844155  
     316A      2.845527   317A      2.866580   318A      2.870253  
     319A      2.941609   320A      2.943096   321A      3.001966  
     322A      3.003912   323A      3.018178   324A      3.020842  
     325A      3.032380   326A      3.037833   327A      3.096913  
     328A      3.101491   329A      3.220826   330A      3.229217  
     331A      3.256128   332A      3.258201   333A      3.284728  
     334A      3.287261   335A      3.367060   336A      3.369113  
     337A      3.413438   338A      3.416652   339A      3.514779  
     340A      3.516374   341A      3.592136   342A      3.593261  
     343A      3.629403   344A      3.630846   345A      3.978013  
     346A      3.979747   347A      4.254894   348A      4.256371  

    Final Occupation by Irrep:
              A 
    DOCC [    42 ]

  @DF-RHF Final Energy:  -525.28007873310116

   => Energetics <=

    Nuclear Repulsion Energy =            543.1618853777865752
    One-Electron Energy =               -1787.0690336662730715
    Two-Electron Energy =                 718.6270695553853329
    Total Energy =                       -525.2800787331011634

Computation Completed


Properties will be evaluated at   0.000000,   0.000000,   0.000000 [a0]

Properties computed using the SCF density matrix

  Nuclear Dipole Moment: [e a0]
     X:  -259.9086      Y:  -149.8134      Z:  -408.6291

  Electronic Dipole Moment: [e a0]
     X:   259.9214      Y:   149.8117      Z:   408.6434

  Dipole Moment: [e a0]
     X:     0.0127      Y:    -0.0017      Z:     0.0143     Total:     0.0193

  Dipole Moment: [D]
     X:     0.0324      Y:    -0.0042      Z:     0.0364     Total:     0.0489


*** tstop() called on atl1-1-01-013-11-r.pace.gatech.edu at Mon Nov 29 16:19:12 2021
Module time:
	user time   =      36.37 seconds =       0.61 minutes
	system time =       1.16 seconds =       0.02 minutes
	total time  =         20 seconds =       0.33 minutes
Total time:
	user time   =      36.37 seconds =       0.61 minutes
	system time =       1.16 seconds =       0.02 minutes
	total time  =         20 seconds =       0.33 minutes

  //>>>>>>>>>>>>>>>>>>>>>>>>>>>>>>>>>>>//
  //            Monomer A HF           //
  //<<<<<<<<<<<<<<<<<<<<<<<<<<<<<<<<<<<//


*** tstart() called on atl1-1-01-013-11-r.pace.gatech.edu
*** at Mon Nov 29 16:19:12 2021

   => Loading Basis Set <=

    Name: AUG-CC-PVDZ
    Role: ORBITAL
    Keyword: BASIS
    atoms 1-2, 11-12  entry N          line   218 file /storage/home/hhive1/csargent30/data/miniconda3/envs/psi4/share/psi4/basis/aug-cc-pvdz.gbs 
    atoms 3-6, 13-16  entry H          line    40 file /storage/home/hhive1/csargent30/data/miniconda3/envs/psi4/share/psi4/basis/aug-cc-pvdz.gbs 
    atoms 7-10, 17-20 entry C          line   182 file /storage/home/hhive1/csargent30/data/miniconda3/envs/psi4/share/psi4/basis/aug-cc-pvdz.gbs 


         ---------------------------------------------------------
                                   SCF
               by Justin Turney, Rob Parrish, Andy Simmonett
                          and Daniel G. A. Smith
                              RHF Reference
                        2 Threads,   6675 MiB Core
         ---------------------------------------------------------

  ==> Geometry <==

    Molecular point group: c1
    Full point group: C1

    Geometry (in Bohr), charge = 0, multiplicity = 1:

       Center              X                  Y                   Z               Mass       
    ------------   -----------------  -----------------  -----------------  -----------------
         N           -1.330847580000     0.980326580000     0.426270370000    14.003074004430
         N            3.953773330000     0.980326580000     0.426270370000    14.003074004430
         H            3.567136740000     4.352185690000    -0.942309730000     1.007825032230
         H           -0.944210980000     4.352185690000    -0.942309730000     1.007825032230
         H           -0.944210980000    -2.391532530000     1.794850470000     1.007825032230
         H            3.567136740000    -2.391532530000     1.794850470000     1.007825032230
         C            2.622925760000     2.940979740000    -0.426270370000    12.000000000000
         C            0.000000000000     2.940979740000    -0.426270370000    12.000000000000
         C            0.000000000000    -0.980326580000     1.278811120000    12.000000000000
         C            2.622925760000    -0.980326580000     1.278811120000    12.000000000000
      Gh(N)         -10.142073580000    -4.547311310000   -10.155534520000    14.003074004430
      Gh(N)          -4.857452670000    -4.547311310000   -10.155534520000    14.003074004430
      Gh(H)          -9.755436980000    -7.919170420000   -11.524114620000     1.007825032230
      Gh(H)          -9.755436980000    -1.175452200000    -8.786954420000     1.007825032230
      Gh(H)          -5.244089270000    -7.919170420000   -11.524114620000     1.007825032230
      Gh(H)          -5.244089270000    -1.175452200000    -8.786954420000     1.007825032230
      Gh(C)          -8.811226010000    -6.507964470000   -11.008075270000    12.000000000000
      Gh(C)          -8.811226010000    -2.586658150000    -9.302993780000    12.000000000000
      Gh(C)          -6.188300250000    -6.507964470000   -11.008075270000    12.000000000000
      Gh(C)          -6.188300250000    -2.586658150000    -9.302993780000    12.000000000000

  Running in c1 symmetry.

  Rotational constants: A =      0.06532  B =      0.00394  C =      0.00392 [cm^-1]
  Rotational constants: A =   1958.33516  B =    118.17527  C =    117.39300 [MHz]
  Nuclear repulsion =  212.551731110485349

  Charge       = 0
  Multiplicity = 1
  Electrons    = 42
  Nalpha       = 21
  Nbeta        = 21

  ==> Algorithm <==

  SCF Algorithm Type is DF.
  DIIS enabled.
  MOM disabled.
  Fractional occupation disabled.
  Guess Type is SAD.
  Energy threshold   = 1.00e-10
  Density threshold  = 1.00e-10
  Integral threshold = 1.00e-12

  ==> Primary Basis <==

  Basis Set: AUG-CC-PVDZ
    Blend: AUG-CC-PVDZ
    Number of shells: 148
    Number of basis functions: 348
    Number of Cartesian functions: 372
    Spherical Harmonics?: true
    Max angular momentum: 2

   => Loading Basis Set <=

    Name: (AUG-CC-PVDZ AUX)
    Role: JKFIT
    Keyword: DF_BASIS_SCF
    atoms 1-2, 11-12  entry N          line   212 file /storage/home/hhive1/csargent30/data/miniconda3/envs/psi4/share/psi4/basis/aug-cc-pvdz-jkfit.gbs 
    atoms 3-6, 13-16  entry H          line    70 file /storage/home/hhive1/csargent30/data/miniconda3/envs/psi4/share/psi4/basis/aug-cc-pvdz-jkfit.gbs 
    atoms 7-10, 17-20 entry C          line   154 file /storage/home/hhive1/csargent30/data/miniconda3/envs/psi4/share/psi4/basis/aug-cc-pvdz-jkfit.gbs 

  ==> Integral Setup <==

  ==> DiskDFJK: Density-Fitted J/K Matrices <==

    J tasked:                  Yes
    K tasked:                  Yes
    wK tasked:                  No
    OpenMP threads:              2
    Integrals threads:           2
    Memory [MiB]:             5006
    Algorithm:                Core
    Integral Cache:           LOAD
    Schwarz Cutoff:          1E-12
    Fitting Condition:       1E-10

   => Auxiliary Basis Set <=

  Basis Set: (AUG-CC-PVDZ AUX)
    Blend: AUG-CC-PVDZ-JKFIT
    Number of shells: 432
    Number of basis functions: 1288
    Number of Cartesian functions: 1492
    Spherical Harmonics?: true
    Max angular momentum: 3

  Minimum eigenvalue in the overlap matrix is 8.7981218327E-06.
  Reciprocal condition number of the overlap matrix is 6.8242305218E-07.
    Using symmetric orthogonalization.

  ==> Pre-Iterations <==

  SCF Guess: Superposition of Atomic Densities via on-the-fly atomic UHF (no occupation information).

   -------------------------
    Irrep   Nso     Nmo    
   -------------------------
     A        348     348 
   -------------------------
    Total     348     348
   -------------------------

  ==> Iterations <==

                           Total Energy        Delta E     RMS |[F,P]|

   @DF-RHF iter SAD:  -262.32523170211886   -2.62325e+02   0.00000e+00 
   @DF-RHF iter   1:  -262.53945934425985   -2.14228e-01   1.11997e-03 DIIS
   @DF-RHF iter   2:  -262.62884143069311   -8.93821e-02   4.10692e-04 DIIS
   @DF-RHF iter   3:  -262.63867698454612   -9.83555e-03   1.28246e-04 DIIS
   @DF-RHF iter   4:  -262.63990182361243   -1.22484e-03   3.77589e-05 DIIS
   @DF-RHF iter   5:  -262.63999142637311   -8.96028e-05   7.55874e-06 DIIS
   @DF-RHF iter   6:  -262.63999797924390   -6.55287e-06   2.45261e-06 DIIS
   @DF-RHF iter   7:  -262.63999893156415   -9.52320e-07   6.40172e-07 DIIS
   @DF-RHF iter   8:  -262.63999900546884   -7.39047e-08   9.92525e-08 DIIS
   @DF-RHF iter   9:  -262.63999900745557   -1.98673e-09   1.92470e-08 DIIS
   @DF-RHF iter  10:  -262.63999900752685   -7.12816e-11   5.94686e-09 DIIS
   @DF-RHF iter  11:  -262.63999900752907   -2.21689e-12   2.56294e-09 DIIS
   @DF-RHF iter  12:  -262.63999900753004   -9.66338e-13   3.27768e-10 DIIS
   @DF-RHF iter  13:  -262.63999900753026   -2.27374e-13   7.52173e-11 DIIS
  Energy and wave function converged.


  ==> Post-Iterations <==

    Orbital Energies [Eh]
    ---------------------

    Doubly Occupied:                                                      

       1A    -15.598076     2A    -15.598055     3A    -11.274228  
       4A    -11.274183     5A    -11.272964     6A    -11.272958  
       7A     -1.313344     8A     -1.224173     9A     -1.076799  
      10A     -0.922659    11A     -0.919280    12A     -0.760634  
      13A     -0.738403    14A     -0.706211    15A     -0.647683  
      16A     -0.580710    17A     -0.574372    18A     -0.497110  
      19A     -0.434289    20A     -0.415854    21A     -0.359922  

    Virtual:                                                              

      22A      0.022206    23A      0.034646    24A      0.037573  
      25A      0.041883    26A      0.045767    27A      0.051172  
      28A      0.058554    29A      0.060954    30A      0.070262  
      31A      0.081614    32A      0.089561    33A      0.098625  
      34A      0.099608    35A      0.102319    36A      0.105969  
      37A      0.109301    38A      0.115737    39A      0.116625  
      40A      0.120634    41A      0.125855    42A      0.125915  
      43A      0.131045    44A      0.135104    45A      0.142627  
      46A      0.146878    47A      0.150783    48A      0.156386  
      49A      0.158315    50A      0.160130    51A      0.161344  
      52A      0.165579    53A      0.174402    54A      0.176941  
      55A      0.183482    56A      0.188346    57A      0.193383  
      58A      0.196664    59A      0.204165    60A      0.214501  
      61A      0.216923    62A      0.229648    63A      0.233128  
      64A      0.238788    65A      0.249485    66A      0.257599  
      67A      0.264426    68A      0.269631    69A      0.273363  
      70A      0.285526    71A      0.292971    72A      0.295738  
      73A      0.301771    74A      0.312307    75A      0.317661  
      76A      0.322433    77A      0.330975    78A      0.336781  
      79A      0.341492    80A      0.347661    81A      0.356206  
      82A      0.364503    83A      0.379297    84A      0.383415  
      85A      0.388415    86A      0.394195    87A      0.400116  
      88A      0.404865    89A      0.410733    90A      0.422193  
      91A      0.426388    92A      0.435895    93A      0.436973  
      94A      0.441701    95A      0.452015    96A      0.453948  
      97A      0.464259    98A      0.469511    99A      0.475062  
     100A      0.481225   101A      0.486166   102A      0.504876  
     103A      0.510067   104A      0.510926   105A      0.522248  
     106A      0.527318   107A      0.529938   108A      0.536419  
     109A      0.542271   110A      0.555606   111A      0.564792  
     112A      0.564898   113A      0.569192   114A      0.574795  
     115A      0.587210   116A      0.594499   117A      0.599597  
     118A      0.600887   119A      0.606569   120A      0.611024  
     121A      0.622483   122A      0.628643   123A      0.642556  
     124A      0.645268   125A      0.646733   126A      0.654614  
     127A      0.659553   128A      0.683031   129A      0.685132  
     130A      0.687281   131A      0.693067   132A      0.695071  
     133A      0.697377   134A      0.700409   135A      0.705380  
     136A      0.723952   137A      0.737550   138A      0.748787  
     139A      0.753462   140A      0.756496   141A      0.771249  
     142A      0.777885   143A      0.791516   144A      0.797369  
     145A      0.803496   146A      0.804906   147A      0.815224  
     148A      0.819950   149A      0.823354   150A      0.828133  
     151A      0.847730   152A      0.849876   153A      0.852619  
     154A      0.865709   155A      0.879601   156A      0.887259  
     157A      0.889098   158A      0.893416   159A      0.899182  
     160A      0.915157   161A      0.930789   162A      0.934277  
     163A      0.943721   164A      0.951381   165A      0.953432  
     166A      0.976300   167A      0.980974   168A      0.989114  
     169A      0.999991   170A      1.004453   171A      1.016060  
     172A      1.034183   173A      1.038662   174A      1.051463  
     175A      1.053787   176A      1.080789   177A      1.090690  
     178A      1.091997   179A      1.102614   180A      1.123056  
     181A      1.126196   182A      1.134133   183A      1.136801  
     184A      1.144884   185A      1.161128   186A      1.171273  
     187A      1.173628   188A      1.178587   189A      1.197346  
     190A      1.202391   191A      1.208382   192A      1.226386  
     193A      1.235799   194A      1.239433   195A      1.255574  
     196A      1.309793   197A      1.311154   198A      1.322374  
     199A      1.329449   200A      1.332038   201A      1.337168  
     202A      1.352721   203A      1.392676   204A      1.414715  
     205A      1.450216   206A      1.455699   207A      1.457539  
     208A      1.483538   209A      1.486764   210A      1.489700  
     211A      1.490456   212A      1.502568   213A      1.505573  
     214A      1.519874   215A      1.574382   216A      1.577278  
     217A      1.593545   218A      1.637141   219A      1.645405  
     220A      1.655353   221A      1.662295   222A      1.681646  
     223A      1.701718   224A      1.721013   225A      1.751462  
     226A      1.756289   227A      1.787059   228A      1.819245  
     229A      1.893469   230A      1.917331   231A      1.966908  
     232A      1.991366   233A      2.032898   234A      2.072265  
     235A      2.091746   236A      2.104631   237A      2.109533  
     238A      2.133452   239A      2.143854   240A      2.158865  
     241A      2.161628   242A      2.165337   243A      2.192786  
     244A      2.194145   245A      2.198021   246A      2.201121  
     247A      2.209470   248A      2.228256   249A      2.240563  
     250A      2.247745   251A      2.251712   252A      2.312574  
     253A      2.315648   254A      2.325246   255A      2.357789  
     256A      2.391006   257A      2.421396   258A      2.431467  
     259A      2.437092   260A      2.440974   261A      2.447310  
     262A      2.475467   263A      2.492157   264A      2.500238  
     265A      2.520374   266A      2.524629   267A      2.528167  
     268A      2.548635   269A      2.574066   270A      2.591387  
     271A      2.595518   272A      2.607499   273A      2.627900  
     274A      2.667184   275A      2.680487   276A      2.691878  
     277A      2.715621   278A      2.719109   279A      2.720959  
     280A      2.729072   281A      2.770341   282A      2.844458  
     283A      2.868312   284A      2.910464   285A      2.941727  
     286A      2.951589   287A      2.959759   288A      2.976515  
     289A      3.002498   290A      3.019014   291A      3.033334  
     292A      3.060057   293A      3.071028   294A      3.099431  
     295A      3.120257   296A      3.221293   297A      3.252589  
     298A      3.257853   299A      3.285086   300A      3.291971  
     301A      3.325194   302A      3.340341   303A      3.344312  
     304A      3.351417   305A      3.356951   306A      3.367467  
     307A      3.413640   308A      3.417219   309A      3.473017  
     310A      3.503796   311A      3.515150   312A      3.524531  
     313A      3.591769   314A      3.608781   315A      3.613045  
     316A      3.630190   317A      3.702694   318A      3.822765  
     319A      3.832062   320A      3.943776   321A      3.972486  
     322A      3.978364   323A      4.015653   324A      4.198327  
     325A      4.250333   326A      4.255387   327A      4.446228  
     328A      4.548826   329A      4.581331   330A      4.871050  
     331A      4.978391   332A      5.062868   333A      5.267336  
     334A      5.319958   335A      5.634678   336A      5.693855  
     337A      5.828859   338A      5.953891   339A      6.286346  
     340A      6.308526   341A      6.455579   342A      6.633121  
     343A     18.127301   344A     18.209773   345A     19.022323  
     346A     19.346955   347A     25.288366   348A     25.376083  

    Final Occupation by Irrep:
              A 
    DOCC [    21 ]

  @DF-RHF Final Energy:  -262.63999900753026

   => Energetics <=

    Nuclear Repulsion Energy =            212.5517311104853491
    One-Electron Energy =                -775.4596444900407732
    Two-Electron Energy =                 300.2679143720251886
    Total Energy =                       -262.6399990075302640

Computation Completed


Properties will be evaluated at   0.000000,   0.000000,   0.000000 [a0]

Properties computed using the SCF density matrix

  Nuclear Dipole Moment: [e a0]
     X:    55.0814      Y:    41.1737      Z:    17.9034

  Electronic Dipole Moment: [e a0]
     X:   -55.0818      Y:   -41.1737      Z:   -17.9033

  Dipole Moment: [e a0]
     X:    -0.0004      Y:     0.0000      Z:     0.0001     Total:     0.0004

  Dipole Moment: [D]
     X:    -0.0010      Y:     0.0001      Z:     0.0002     Total:     0.0010


*** tstop() called on atl1-1-01-013-11-r.pace.gatech.edu at Mon Nov 29 16:19:24 2021
Module time:
	user time   =      21.87 seconds =       0.36 minutes
	system time =       0.57 seconds =       0.01 minutes
	total time  =         12 seconds =       0.20 minutes
Total time:
	user time   =      58.25 seconds =       0.97 minutes
	system time =       1.73 seconds =       0.03 minutes
	total time  =         32 seconds =       0.53 minutes

  //>>>>>>>>>>>>>>>>>>>>>>>>>>>>>>>>>>>//
  //            Monomer B HF           //
  //<<<<<<<<<<<<<<<<<<<<<<<<<<<<<<<<<<<//


*** tstart() called on atl1-1-01-013-11-r.pace.gatech.edu
*** at Mon Nov 29 16:19:24 2021

   => Loading Basis Set <=

    Name: AUG-CC-PVDZ
    Role: ORBITAL
    Keyword: BASIS
    atoms 1-2, 11-12  entry N          line   218 file /storage/home/hhive1/csargent30/data/miniconda3/envs/psi4/share/psi4/basis/aug-cc-pvdz.gbs 
    atoms 3-6, 13-16  entry H          line    40 file /storage/home/hhive1/csargent30/data/miniconda3/envs/psi4/share/psi4/basis/aug-cc-pvdz.gbs 
    atoms 7-10, 17-20 entry C          line   182 file /storage/home/hhive1/csargent30/data/miniconda3/envs/psi4/share/psi4/basis/aug-cc-pvdz.gbs 


         ---------------------------------------------------------
                                   SCF
               by Justin Turney, Rob Parrish, Andy Simmonett
                          and Daniel G. A. Smith
                              RHF Reference
                        2 Threads,   6675 MiB Core
         ---------------------------------------------------------

  ==> Geometry <==

    Molecular point group: c1
    Full point group: C1

    Geometry (in Bohr), charge = 0, multiplicity = 1:

       Center              X                  Y                   Z               Mass       
    ------------   -----------------  -----------------  -----------------  -----------------
      Gh(N)          -1.330847580000     0.980326580000     0.426270370000    14.003074004430
      Gh(N)           3.953773330000     0.980326580000     0.426270370000    14.003074004430
      Gh(H)           3.567136740000     4.352185690000    -0.942309730000     1.007825032230
      Gh(H)          -0.944210980000     4.352185690000    -0.942309730000     1.007825032230
      Gh(H)          -0.944210980000    -2.391532530000     1.794850470000     1.007825032230
      Gh(H)           3.567136740000    -2.391532530000     1.794850470000     1.007825032230
      Gh(C)           2.622925760000     2.940979740000    -0.426270370000    12.000000000000
      Gh(C)           0.000000000000     2.940979740000    -0.426270370000    12.000000000000
      Gh(C)           0.000000000000    -0.980326580000     1.278811120000    12.000000000000
      Gh(C)           2.622925760000    -0.980326580000     1.278811120000    12.000000000000
         N          -10.142073580000    -4.547311310000   -10.155534520000    14.003074004430
         N           -4.857452670000    -4.547311310000   -10.155534520000    14.003074004430
         H           -9.755436980000    -7.919170420000   -11.524114620000     1.007825032230
         H           -9.755436980000    -1.175452200000    -8.786954420000     1.007825032230
         H           -5.244089270000    -7.919170420000   -11.524114620000     1.007825032230
         H           -5.244089270000    -1.175452200000    -8.786954420000     1.007825032230
         C           -8.811226010000    -6.507964470000   -11.008075270000    12.000000000000
         C           -8.811226010000    -2.586658150000    -9.302993780000    12.000000000000
         C           -6.188300250000    -6.507964470000   -11.008075270000    12.000000000000
         C           -6.188300250000    -2.586658150000    -9.302993780000    12.000000000000

  Running in c1 symmetry.

  Rotational constants: A =      0.06532  B =      0.00394  C =      0.00392 [cm^-1]
  Rotational constants: A =   1958.33516  B =    118.17527  C =    117.39300 [MHz]
  Nuclear repulsion =  212.551731143112960

  Charge       = 0
  Multiplicity = 1
  Electrons    = 42
  Nalpha       = 21
  Nbeta        = 21

  ==> Algorithm <==

  SCF Algorithm Type is DF.
  DIIS enabled.
  MOM disabled.
  Fractional occupation disabled.
  Guess Type is SAD.
  Energy threshold   = 1.00e-10
  Density threshold  = 1.00e-10
  Integral threshold = 1.00e-12

  ==> Primary Basis <==

  Basis Set: AUG-CC-PVDZ
    Blend: AUG-CC-PVDZ
    Number of shells: 148
    Number of basis functions: 348
    Number of Cartesian functions: 372
    Spherical Harmonics?: true
    Max angular momentum: 2

   => Loading Basis Set <=

    Name: (AUG-CC-PVDZ AUX)
    Role: JKFIT
    Keyword: DF_BASIS_SCF
    atoms 1-2, 11-12  entry N          line   212 file /storage/home/hhive1/csargent30/data/miniconda3/envs/psi4/share/psi4/basis/aug-cc-pvdz-jkfit.gbs 
    atoms 3-6, 13-16  entry H          line    70 file /storage/home/hhive1/csargent30/data/miniconda3/envs/psi4/share/psi4/basis/aug-cc-pvdz-jkfit.gbs 
    atoms 7-10, 17-20 entry C          line   154 file /storage/home/hhive1/csargent30/data/miniconda3/envs/psi4/share/psi4/basis/aug-cc-pvdz-jkfit.gbs 

  ==> Integral Setup <==

  ==> DiskDFJK: Density-Fitted J/K Matrices <==

    J tasked:                  Yes
    K tasked:                  Yes
    wK tasked:                  No
    OpenMP threads:              2
    Integrals threads:           2
    Memory [MiB]:             5006
    Algorithm:                Core
    Integral Cache:           LOAD
    Schwarz Cutoff:          1E-12
    Fitting Condition:       1E-10

   => Auxiliary Basis Set <=

  Basis Set: (AUG-CC-PVDZ AUX)
    Blend: AUG-CC-PVDZ-JKFIT
    Number of shells: 432
    Number of basis functions: 1288
    Number of Cartesian functions: 1492
    Spherical Harmonics?: true
    Max angular momentum: 3

  Minimum eigenvalue in the overlap matrix is 8.7981218327E-06.
  Reciprocal condition number of the overlap matrix is 6.8242305218E-07.
    Using symmetric orthogonalization.

  ==> Pre-Iterations <==

  SCF Guess: Superposition of Atomic Densities via on-the-fly atomic UHF (no occupation information).

   -------------------------
    Irrep   Nso     Nmo    
   -------------------------
     A        348     348 
   -------------------------
    Total     348     348
   -------------------------

  ==> Iterations <==

                           Total Energy        Delta E     RMS |[F,P]|

   @DF-RHF iter SAD:  -262.32523164574070   -2.62325e+02   0.00000e+00 
   @DF-RHF iter   1:  -262.53944914119279   -2.14217e-01   1.12000e-03 DIIS
   @DF-RHF iter   2:  -262.62883232313607   -8.93832e-02   4.10698e-04 DIIS
   @DF-RHF iter   3:  -262.63866825051258   -9.83593e-03   1.28251e-04 DIIS
   @DF-RHF iter   4:  -262.63989321815927   -1.22497e-03   3.77612e-05 DIIS
   @DF-RHF iter   5:  -262.63998283533493   -8.96172e-05   7.55828e-06 DIIS
   @DF-RHF iter   6:  -262.63998938579056   -6.55046e-06   2.45155e-06 DIIS
   @DF-RHF iter   7:  -262.63999033728879   -9.51498e-07   6.40041e-07 DIIS
   @DF-RHF iter   8:  -262.63999041116381   -7.38750e-08   9.91865e-08 DIIS
   @DF-RHF iter   9:  -262.63999041315014   -1.98634e-09   1.89559e-08 DIIS
   @DF-RHF iter  10:  -262.63999041322029   -7.01448e-11   4.20459e-09 DIIS
   @DF-RHF iter  11:  -262.63999041322239   -2.10321e-12   2.42573e-09 DIIS
   @DF-RHF iter  12:  -262.63999041322268   -2.84217e-13   3.46644e-10 DIIS
   @DF-RHF iter  13:  -262.63999041322268    0.00000e+00   9.77091e-11 DIIS
  Energy and wave function converged.


  ==> Post-Iterations <==

    Orbital Energies [Eh]
    ---------------------

    Doubly Occupied:                                                      

       1A    -15.598074     2A    -15.598055     3A    -11.274234  
       4A    -11.274183     5A    -11.272976     6A    -11.272952  
       7A     -1.313349     8A     -1.224178     9A     -1.076805  
      10A     -0.922664    11A     -0.919285    12A     -0.760640  
      13A     -0.738405    14A     -0.706217    15A     -0.647692  
      16A     -0.580715    17A     -0.574372    18A     -0.497114  
      19A     -0.434292    20A     -0.415857    21A     -0.359926  

    Virtual:                                                              

      22A      0.020767    23A      0.034658    24A      0.036425  
      25A      0.040642    26A      0.049298    27A      0.049796  
      28A      0.058903    29A      0.059954    30A      0.068098  
      31A      0.082787    32A      0.088582    33A      0.098883  
      34A      0.100599    35A      0.102463    36A      0.104695  
      37A      0.106894    38A      0.113824    39A      0.118783  
      40A      0.121924    41A      0.123943    42A      0.127357  
      43A      0.128700    44A      0.137654    45A      0.138168  
      46A      0.144828    47A      0.150338    48A      0.156078  
      49A      0.158790    50A      0.161381    51A      0.162362  
      52A      0.167557    53A      0.169369    54A      0.176893  
      55A      0.178891    56A      0.185502    57A      0.201071  
      58A      0.202847    59A      0.204358    60A      0.210950  
      61A      0.215925    62A      0.225509    63A      0.227352  
      64A      0.240173    65A      0.244681    66A      0.254089  
      67A      0.261205    68A      0.271345    69A      0.274680  
      70A      0.286693    71A      0.293983    72A      0.296386  
      73A      0.302645    74A      0.306557    75A      0.316673  
      76A      0.321444    77A      0.324602    78A      0.334091  
      79A      0.341982    80A      0.345335    81A      0.358726  
      82A      0.360737    83A      0.367587    84A      0.382928  
      85A      0.387505    86A      0.397524    87A      0.406092  
      88A      0.407708    89A      0.418151    90A      0.422473  
      91A      0.427968    92A      0.435847    93A      0.438941  
      94A      0.445763    95A      0.451925    96A      0.456690  
      97A      0.461743    98A      0.465653    99A      0.480389  
     100A      0.483692   101A      0.490322   102A      0.504237  
     103A      0.508464   104A      0.513955   105A      0.521621  
     106A      0.527173   107A      0.533378   108A      0.538270  
     109A      0.544170   110A      0.558170   111A      0.558969  
     112A      0.562870   113A      0.565004   114A      0.572226  
     115A      0.582509   116A      0.589450   117A      0.592668  
     118A      0.596742   119A      0.601388   120A      0.610580  
     121A      0.623236   122A      0.628485   123A      0.643025  
     124A      0.645375   125A      0.647422   126A      0.651395  
     127A      0.655929   128A      0.679725   129A      0.685425  
     130A      0.686947   131A      0.690313   132A      0.694109  
     133A      0.695636   134A      0.700239   135A      0.708599  
     136A      0.721003   137A      0.735392   138A      0.747991  
     139A      0.753986   140A      0.766924   141A      0.769256  
     142A      0.778470   143A      0.787106   144A      0.797968  
     145A      0.801165   146A      0.805962   147A      0.814378  
     148A      0.817338   149A      0.826115   150A      0.832607  
     151A      0.843944   152A      0.850208   153A      0.852148  
     154A      0.860286   155A      0.872824   156A      0.883678  
     157A      0.887649   158A      0.891907   159A      0.899216  
     160A      0.909384   161A      0.927560   162A      0.938639  
     163A      0.944150   164A      0.949654   165A      0.951461  
     166A      0.971716   167A      0.977532   168A      0.986841  
     169A      1.003411   170A      1.005701   171A      1.018232  
     172A      1.033062   173A      1.039408   174A      1.051386  
     175A      1.056643   176A      1.077114   177A      1.091530  
     178A      1.092547   179A      1.102546   180A      1.124648  
     181A      1.124990   182A      1.131945   183A      1.137877  
     184A      1.142770   185A      1.161107   186A      1.170421  
     187A      1.171362   188A      1.177246   189A      1.194403  
     190A      1.196768   191A      1.219901   192A      1.223680  
     193A      1.236967   194A      1.239859   195A      1.251684  
     196A      1.307018   197A      1.313301   198A      1.326022  
     199A      1.327630   200A      1.331342   201A      1.333375  
     202A      1.350206   203A      1.391118   204A      1.416147  
     205A      1.448539   206A      1.453184   207A      1.458161  
     208A      1.479045   209A      1.486978   210A      1.488395  
     211A      1.490213   212A      1.503145   213A      1.508270  
     214A      1.521630   215A      1.574026   216A      1.577686  
     217A      1.592832   218A      1.637664   219A      1.647442  
     220A      1.654021   221A      1.660429   222A      1.680018  
     223A      1.698472   224A      1.719037   225A      1.748063  
     226A      1.761662   227A      1.788569   228A      1.816436  
     229A      1.896272   230A      1.917675   231A      1.966846  
     232A      1.988577   233A      2.031747   234A      2.070149  
     235A      2.091857   236A      2.104668   237A      2.114656  
     238A      2.127617   239A      2.144328   240A      2.159510  
     241A      2.162305   242A      2.166342   243A      2.192235  
     244A      2.194100   245A      2.196441   246A      2.201834  
     247A      2.205029   248A      2.228403   249A      2.238927  
     250A      2.244378   251A      2.251305   252A      2.309792  
     253A      2.315999   254A      2.326700   255A      2.359085  
     256A      2.394929   257A      2.419610   258A      2.432964  
     259A      2.436006   260A      2.441723   261A      2.443384  
     262A      2.473949   263A      2.490082   264A      2.498800  
     265A      2.520994   266A      2.523066   267A      2.528285  
     268A      2.547482   269A      2.571523   270A      2.588184  
     271A      2.594309   272A      2.609768   273A      2.625982  
     274A      2.667104   275A      2.678087   276A      2.691316  
     277A      2.717225   278A      2.718327   279A      2.720058  
     280A      2.727214   281A      2.768840   282A      2.844447  
     283A      2.867186   284A      2.910698   285A      2.941690  
     286A      2.950483   287A      2.958879   288A      2.977508  
     289A      3.002786   290A      3.019554   291A      3.035161  
     292A      3.058911   293A      3.068104   294A      3.095845  
     295A      3.115345   296A      3.226496   297A      3.249197  
     298A      3.256922   299A      3.285589   300A      3.290906  
     301A      3.323936   302A      3.339458   303A      3.342876  
     304A      3.348802   305A      3.354273   306A      3.367988  
     307A      3.413766   308A      3.417519   309A      3.470996  
     310A      3.502194   311A      3.515254   312A      3.527522  
     313A      3.591987   314A      3.607321   315A      3.612173  
     316A      3.629403   317A      3.701546   318A      3.820074  
     319A      3.830589   320A      3.941483   321A      3.969555  
     322A      3.978341   323A      4.021779   324A      4.196316  
     325A      4.245906   326A      4.255666   327A      4.445294  
     328A      4.549146   329A      4.582159   330A      4.874195  
     331A      4.976030   332A      5.058426   333A      5.264876  
     334A      5.318608   335A      5.631291   336A      5.691985  
     337A      5.827513   338A      5.952708   339A      6.284059  
     340A      6.306639   341A      6.453670   342A      6.631423  
     343A     18.125978   344A     18.207924   345A     19.018772  
     346A     19.347446   347A     25.287136   348A     25.374776  

    Final Occupation by Irrep:
              A 
    DOCC [    21 ]

  @DF-RHF Final Energy:  -262.63999041322268

   => Energetics <=

    Nuclear Repulsion Energy =            212.5517311431129599
    One-Electron Energy =                -775.4594707023993578
    Two-Electron Energy =                 300.2677491460636929
    Total Energy =                       -262.6399904132226766

Computation Completed


Properties will be evaluated at   0.000000,   0.000000,   0.000000 [a0]

Properties computed using the SCF density matrix

  Nuclear Dipole Moment: [e a0]
     X:  -314.9901      Y:  -190.9871      Z:  -426.5324

  Electronic Dipole Moment: [e a0]
     X:   314.9900      Y:   190.9871      Z:   426.5325

  Dipole Moment: [e a0]
     X:    -0.0000      Y:     0.0001      Z:     0.0001     Total:     0.0001

  Dipole Moment: [D]
     X:    -0.0001      Y:     0.0002      Z:     0.0002     Total:     0.0003


*** tstop() called on atl1-1-01-013-11-r.pace.gatech.edu at Mon Nov 29 16:19:36 2021
Module time:
	user time   =      22.18 seconds =       0.37 minutes
	system time =       0.56 seconds =       0.01 minutes
	total time  =         12 seconds =       0.20 minutes
Total time:
	user time   =      80.44 seconds =       1.34 minutes
	system time =       2.29 seconds =       0.04 minutes
	total time  =         44 seconds =       0.73 minutes
  Constructing Basis Sets for SAPT...

   => Loading Basis Set <=

    Name: (AUG-CC-PVDZ AUX)
    Role: RIFIT
    Keyword: DF_BASIS_SAPT
    atoms 1-2, 11-12  entry N          line   158 file /storage/home/hhive1/csargent30/data/miniconda3/envs/psi4/share/psi4/basis/aug-cc-pvdz-ri.gbs 
    atoms 3-6, 13-16  entry H          line    30 file /storage/home/hhive1/csargent30/data/miniconda3/envs/psi4/share/psi4/basis/aug-cc-pvdz-ri.gbs 
    atoms 7-10, 17-20 entry C          line   112 file /storage/home/hhive1/csargent30/data/miniconda3/envs/psi4/share/psi4/basis/aug-cc-pvdz-ri.gbs 


  //>>>>>>>>>>>>>>>>>>>>>>>>>>>>>>>>>>>//
  //               SAPT0               //
  //<<<<<<<<<<<<<<<<<<<<<<<<<<<<<<<<<<<//


*** tstart() called on atl1-1-01-013-11-r.pace.gatech.edu
*** at Mon Nov 29 16:19:36 2021

        SAPT0  
    Ed Hohenstein
     6 June 2009

      Orbital Information
  --------------------------
    NSO        =       348
    NMO        =       348
    NRI        =      1048
    NOCC A     =        21
    NOCC B     =        21
    FOCC A     =         6
    FOCC B     =         6
    NVIR A     =       327
    NVIR B     =       327

    Elst10,r            =    -0.000083833884 [Eh]
    Exch10              =     0.000000444174 [Eh]
    Exch10 (S^2)        =     0.000000444174 [Eh]

    Iter     Energy [mEh]          dE [mEh]         Residual      Time [s]
       1      -0.00323238       0.003232383       0.639310864             0
       2      -0.00295041      -0.000281970       0.147388555             0
       3      -0.00328243       0.000332018       0.054960655             1
       4      -0.00331268       0.000030250       0.022126303             1
       5      -0.00330402      -0.000008657       0.011980781             2
       6      -0.00329872      -0.000005308       0.004708448             2
       7      -0.00329986       0.000001149       0.001870604             2
       8      -0.00330077       0.000000911       0.000496750             3
       9      -0.00330065      -0.000000121       0.000173226             3
      10      -0.00330057      -0.000000082       0.000052962             3
      11      -0.00330058       0.000000010       0.000023615             4
      12      -0.00330059       0.000000009       0.000008839             4
      13      -0.00330059      -0.000000002       0.000004190             4
      14      -0.00330059      -0.000000001       0.000001350             5
      15      -0.00330059       0.000000000       0.000000446             5

    CHF Iterations converged


    Iter     Energy [mEh]          dE [mEh]         Residual      Time [s]
       1      -0.00250691       0.002506908       0.517008168             1
       2      -0.00232484      -0.000182073       0.123245220             1
       3      -0.00257835       0.000253514       0.053847098             1
       4      -0.00261347       0.000035117       0.023411029             2
       5      -0.00259493      -0.000018531       0.009868942             2
       6      -0.00259358      -0.000001352       0.004161662             2
       7      -0.00259494       0.000001354       0.001388274             3
       8      -0.00259543       0.000000490       0.000416581             3
       9      -0.00259537      -0.000000056       0.000158610             3
      10      -0.00259529      -0.000000079       0.000060264             4
      11      -0.00259531       0.000000015       0.000033607             4
      12      -0.00259532       0.000000011       0.000011391             4
      13      -0.00259532      -0.000000004       0.000003574             5
      14      -0.00259531      -0.000000000       0.000001072             5
      15      -0.00259531       0.000000000       0.000000398             6

    CHF Iterations converged

    Ind20,r (A<-B)      =    -0.000003300588 [Eh]
    Ind20,r (B<-A)      =    -0.000002595315 [Eh]
    Ind20,r             =    -0.000005895903 [Eh]
    Exch-Ind20,r (A<-B) =     0.000000058594 [Eh]
    Exch-Ind20,r (B<-A) =     0.000000076425 [Eh]
    Exch-Ind20,r        =     0.000000135019 [Eh]
    Disp20              =    -0.000196888726 [Eh]
    Disp20 (SS)         =    -0.000098444363 [Eh]
    Disp20 (OS)         =    -0.000098444363 [Eh]
    Exch-Disp20         =     0.000000124990 [Eh]
    Exch-Disp20 (SS)    =     0.000000093713 [Eh]
    Exch-Disp20 (OS)    =     0.000000031277 [Eh]

    SAPT Results 
  --------------------------------------------------------------------------------------------------------
    Electrostatics                 -0.08383388 [mEh]      -0.05260656 [kcal/mol]      -0.22010583 [kJ/mol]
      Elst10,r                     -0.08383388 [mEh]      -0.05260656 [kcal/mol]      -0.22010583 [kJ/mol]

    Exchange                        0.00044417 [mEh]       0.00027872 [kcal/mol]       0.00116618 [kJ/mol]
      Exch10                        0.00044417 [mEh]       0.00027872 [kcal/mol]       0.00116618 [kJ/mol]
      Exch10(S^2)                   0.00044417 [mEh]       0.00027872 [kcal/mol]       0.00116618 [kJ/mol]

    Induction                      -0.00592264 [mEh]      -0.00371651 [kcal/mol]      -0.01554988 [kJ/mol]
      Ind20,r                      -0.00589590 [mEh]      -0.00369973 [kcal/mol]      -0.01547969 [kJ/mol]
      Exch-Ind20,r                  0.00013502 [mEh]       0.00008473 [kcal/mol]       0.00035449 [kJ/mol]
      delta HF,r (2)               -0.00016175 [mEh]      -0.00010150 [kcal/mol]      -0.00042469 [kJ/mol]

    Dispersion                     -0.19676374 [mEh]      -0.12347111 [kcal/mol]      -0.51660312 [kJ/mol]
      Disp20                       -0.19688873 [mEh]      -0.12354954 [kcal/mol]      -0.51693128 [kJ/mol]
      Exch-Disp20                   0.00012499 [mEh]       0.00007843 [kcal/mol]       0.00032816 [kJ/mol]
      Disp20 (SS)                  -0.09844436 [mEh]      -0.06177477 [kcal/mol]      -0.25846564 [kJ/mol]
      Disp20 (OS)                  -0.09844436 [mEh]      -0.06177477 [kcal/mol]      -0.25846564 [kJ/mol]
      Exch-Disp20 (SS)              0.00009371 [mEh]       0.00005881 [kcal/mol]       0.00024604 [kJ/mol]
      Exch-Disp20 (OS)              0.00003128 [mEh]       0.00001963 [kcal/mol]       0.00008212 [kJ/mol]

  Total HF                         -0.08931235 [mEh]      -0.05604434 [kcal/mol]      -0.23448954 [kJ/mol]
  Total SAPT0                      -0.28607608 [mEh]      -0.17951545 [kcal/mol]      -0.75109266 [kJ/mol]

  Special recipe for scaled SAPT0 (see Manual):
    Electrostatics sSAPT0          -0.08383388 [mEh]      -0.05260656 [kcal/mol]      -0.22010583 [kJ/mol]
    Exchange sSAPT0                 0.00044417 [mEh]       0.00027872 [kcal/mol]       0.00116618 [kJ/mol]
    Induction sSAPT0               -0.00592264 [mEh]      -0.00371651 [kcal/mol]      -0.01554988 [kJ/mol]
    Dispersion sSAPT0              -0.19676374 [mEh]      -0.12347111 [kcal/mol]      -0.51660312 [kJ/mol]
  Total sSAPT0                     -0.28607608 [mEh]      -0.17951545 [kcal/mol]      -0.75109266 [kJ/mol]
  --------------------------------------------------------------------------------------------------------

*** tstop() called on atl1-1-01-013-11-r.pace.gatech.edu at Mon Nov 29 16:20:05 2021
Module time:
	user time   =      43.45 seconds =       0.72 minutes
	system time =      10.76 seconds =       0.18 minutes
	total time  =         29 seconds =       0.48 minutes
Total time:
	user time   =     124.13 seconds =       2.07 minutes
	system time =      13.06 seconds =       0.22 minutes
	total time  =         73 seconds =       1.22 minutes


Warning! sapt0 does not have an associated derived wavefunction.The returned wavefunction is the dimer SCF wavefunction.


    Psi4 stopped on: Monday, 29 November 2021 04:20PM
    Psi4 wall time for execution: 0:01:12.89

*** Psi4 exiting successfully. Buy a developer a beer!
