
    -----------------------------------------------------------------------
          Psi4: An Open-Source Ab Initio Electronic Structure Package
                               Psi4 1.4.1 release

                         Git: Rev {HEAD} cd00f19


    D. G. A. Smith, L. A. Burns, A. C. Simmonett, R. M. Parrish,
    M. C. Schieber, R. Galvelis, P. Kraus, H. Kruse, R. Di Remigio,
    A. Alenaizan, A. M. James, S. Lehtola, J. P. Misiewicz, M. Scheurer,
    R. A. Shaw, J. B. Schriber, Y. Xie, Z. L. Glick, D. A. Sirianni,
    J. S. O'Brien, J. M. Waldrop, A. Kumar, E. G. Hohenstein,
    B. P. Pritchard, B. R. Brooks, H. F. Schaefer III, A. Yu. Sokolov,
    K. Patkowski, A. E. DePrince III, U. Bozkaya, R. A. King,
    F. A. Evangelista, J. M. Turney, T. D. Crawford, C. D. Sherrill,
    J. Chem. Phys. 152(18) 184108 (2020). https://doi.org/10.1063/5.0006002

                            Additional Code Authors
    E. T. Seidl, C. L. Janssen, E. F. Valeev, M. L. Leininger,
    J. F. Gonthier, R. M. Richard, H. R. McAlexander, M. Saitow, X. Wang,
    P. Verma, and M. H. Lechner

             Previous Authors, Complete List of Code Contributors,
                       and Citations for Specific Modules
    https://github.com/psi4/psi4/blob/master/codemeta.json
    https://github.com/psi4/psi4/graphs/contributors
    http://psicode.org/psi4manual/master/introduction.html#citing-psifour

    -----------------------------------------------------------------------


    Psi4 started on: Monday, 29 November 2021 04:10PM

    Process ID: 46144
    Host:       atl1-1-01-013-8-r.pace.gatech.edu
    PSIDATADIR: /storage/home/hhive1/csargent30/data/miniconda3/envs/psi4/share/psi4
    Memory:     500.0 MiB
    Threads:    2

  ==> Input File <==

--------------------------------------------------------------------------
# PSI4 file produced by CrystaLattE

# Generated from:               pyrazine.xyz
# Psithon input for N-mer:      2mer-0+275
# Number of atoms per monomer:  [10, 10]
# Number of replicas:           8
# COM priority:                 1.992962226218e-05
# Minimum COM separations:      19.518
# Separation priority:          2.694591147022e-05
# Minimum monomer separations:  17.651
# Cutoff priority:              8.078371814933e-07
# Nuclear repulsion energy:     472.7991261481842

memory 7 GB

molecule Dimer_0_275 {
  N           -1.33084758       0.98032658       0.42627037
  N            3.95377333       0.98032658       0.42627037
  H            3.56713674       4.35218569      -0.94230973
  H           -0.94421098       4.35218569      -0.94230973
  H           -0.94421098      -2.39153253       1.79485047
  H            3.56713674      -2.39153253       1.79485047
  C            2.62292576       2.94097974      -0.42627037
  C            0.00000000       2.94097974      -0.42627037
  C            0.00000000      -0.98032658       1.27881112
  C            2.62292576      -0.98032658       1.27881112
--
  N          -10.14207358     -15.60258709     -31.31914432
  N           -4.85745267     -15.60258709     -31.31914432
  H           -9.75543698     -18.97444620     -32.68772442
  H           -9.75543698     -12.23072798     -29.95056422
  H           -5.24408927     -18.97444620     -32.68772442
  H           -5.24408927     -12.23072798     -29.95056422
  C           -8.81122601     -17.56324025     -32.17168507
  C           -8.81122601     -13.64193393     -30.46660357
  C           -6.18830025     -17.56324025     -32.17168507
  C           -6.18830025     -13.64193393     -30.46660357
units = au
no_com
no_reorient
}

set {
  e_convergence 10
  d_convergence 10
  scf_type df
  mp2_type df
  cc_type df
  freeze_core true
}

energy('sapt0/aug-cc-pvdz')

--------------------------------------------------------------------------

  Memory set to   6.519 GiB by Python driver.

Scratch directory: /tmp/

Scratch directory: /tmp/

  //>>>>>>>>>>>>>>>>>>>>>>>>>>>>>>>>>>>//
  //              Dimer HF             //
  //<<<<<<<<<<<<<<<<<<<<<<<<<<<<<<<<<<<//


*** tstart() called on atl1-1-01-013-8-r.pace.gatech.edu
*** at Mon Nov 29 16:10:43 2021

   => Loading Basis Set <=

    Name: AUG-CC-PVDZ
    Role: ORBITAL
    Keyword: BASIS
    atoms 1-2, 11-12  entry N          line   218 file /storage/home/hhive1/csargent30/data/miniconda3/envs/psi4/share/psi4/basis/aug-cc-pvdz.gbs
    atoms 3-6, 13-16  entry H          line    40 file /storage/home/hhive1/csargent30/data/miniconda3/envs/psi4/share/psi4/basis/aug-cc-pvdz.gbs
    atoms 7-10, 17-20 entry C          line   182 file /storage/home/hhive1/csargent30/data/miniconda3/envs/psi4/share/psi4/basis/aug-cc-pvdz.gbs


         ---------------------------------------------------------
                                   SCF
               by Justin Turney, Rob Parrish, Andy Simmonett
                          and Daniel G. A. Smith
                              RHF Reference
                        2 Threads,   6675 MiB Core
         ---------------------------------------------------------

  ==> Geometry <==

    Molecular point group: c1
    Full point group: C1

    Geometry (in Bohr), charge = 0, multiplicity = 1:

       Center              X                  Y                   Z               Mass
    ------------   -----------------  -----------------  -----------------  -----------------
         N           -1.330847580000     0.980326580000     0.426270370000    14.003074004430
         N            3.953773330000     0.980326580000     0.426270370000    14.003074004430
         H            3.567136740000     4.352185690000    -0.942309730000     1.007825032230
         H           -0.944210980000     4.352185690000    -0.942309730000     1.007825032230
         H           -0.944210980000    -2.391532530000     1.794850470000     1.007825032230
         H            3.567136740000    -2.391532530000     1.794850470000     1.007825032230
         C            2.622925760000     2.940979740000    -0.426270370000    12.000000000000
         C            0.000000000000     2.940979740000    -0.426270370000    12.000000000000
         C            0.000000000000    -0.980326580000     1.278811120000    12.000000000000
         C            2.622925760000    -0.980326580000     1.278811120000    12.000000000000
         N          -10.142073580000   -15.602587090000   -31.319144320000    14.003074004430
         N           -4.857452670000   -15.602587090000   -31.319144320000    14.003074004430
         H           -9.755436980000   -18.974446200000   -32.687724420000     1.007825032230
         H           -9.755436980000   -12.230727980000   -29.950564220000     1.007825032230
         H           -5.244089270000   -18.974446200000   -32.687724420000     1.007825032230
         H           -5.244089270000   -12.230727980000   -29.950564220000     1.007825032230
         C           -8.811226010000   -17.563240250000   -32.171685070000    12.000000000000
         C           -8.811226010000   -13.641933930000   -30.466603570000    12.000000000000
         C           -6.188300250000   -17.563240250000   -32.171685070000    12.000000000000
         C           -6.188300250000   -13.641933930000   -30.466603570000    12.000000000000

  Running in c1 symmetry.

  Rotational constants: A =      0.05474  B =      0.00058  C =      0.00058 [cm^-1]
  Rotational constants: A =   1641.00469  B =     17.49014  C =     17.44623 [MHz]
  Nuclear repulsion =  472.799126111090914

  Charge       = 0
  Multiplicity = 1
  Electrons    = 84
  Nalpha       = 42
  Nbeta        = 42

  ==> Algorithm <==

  SCF Algorithm Type is DF.
  DIIS enabled.
  MOM disabled.
  Fractional occupation disabled.
  Guess Type is SAD.
  Energy threshold   = 1.00e-10
  Density threshold  = 1.00e-10
  Integral threshold = 1.00e-12

  ==> Primary Basis <==

  Basis Set: AUG-CC-PVDZ
    Blend: AUG-CC-PVDZ
    Number of shells: 148
    Number of basis functions: 348
    Number of Cartesian functions: 372
    Spherical Harmonics?: true
    Max angular momentum: 2

   => Loading Basis Set <=

    Name: (AUG-CC-PVDZ AUX)
    Role: JKFIT
    Keyword: DF_BASIS_SCF
    atoms 1-2, 11-12  entry N          line   212 file /storage/home/hhive1/csargent30/data/miniconda3/envs/psi4/share/psi4/basis/aug-cc-pvdz-jkfit.gbs
    atoms 3-6, 13-16  entry H          line    70 file /storage/home/hhive1/csargent30/data/miniconda3/envs/psi4/share/psi4/basis/aug-cc-pvdz-jkfit.gbs
    atoms 7-10, 17-20 entry C          line   154 file /storage/home/hhive1/csargent30/data/miniconda3/envs/psi4/share/psi4/basis/aug-cc-pvdz-jkfit.gbs

  ==> Integral Setup <==

  ==> DiskDFJK: Density-Fitted J/K Matrices <==

    J tasked:                  Yes
    K tasked:                  Yes
    wK tasked:                  No
    OpenMP threads:              2
    Integrals threads:           2
    Memory [MiB]:             5006
    Algorithm:                Core
    Integral Cache:           SAVE
    Schwarz Cutoff:          1E-12
    Fitting Condition:       1E-10

   => Auxiliary Basis Set <=

  Basis Set: (AUG-CC-PVDZ AUX)
    Blend: AUG-CC-PVDZ-JKFIT
    Number of shells: 432
    Number of basis functions: 1288
    Number of Cartesian functions: 1492
    Spherical Harmonics?: true
    Max angular momentum: 3

  Minimum eigenvalue in the overlap matrix is 9.4898452137E-06.
  Reciprocal condition number of the overlap matrix is 7.4017681339E-07.
    Using symmetric orthogonalization.

  ==> Pre-Iterations <==

  SCF Guess: Superposition of Atomic Densities via on-the-fly atomic UHF (no occupation information).

   -------------------------
    Irrep   Nso     Nmo
   -------------------------
     A        348     348
   -------------------------
    Total     348     348
   -------------------------

  ==> Iterations <==

                           Total Energy        Delta E     RMS |[F,P]|

   @DF-RHF iter SAD:  -524.65046251213278   -5.24650e+02   0.00000e+00
   @DF-RHF iter   1:  -525.07881690482316   -4.28354e-01   1.58371e-03 DIIS
   @DF-RHF iter   2:  -525.25757760838280   -1.78761e-01   5.80763e-04 DIIS
   @DF-RHF iter   3:  -525.27724647544551   -1.96689e-02   1.81369e-04 DIIS
   @DF-RHF iter   4:  -525.27969597104448   -2.44950e-03   5.34005e-05 DIIS
   @DF-RHF iter   5:  -525.27987517209579   -1.79201e-04   1.06853e-05 DIIS
   @DF-RHF iter   6:  -525.27988827279250   -1.31007e-05   3.46857e-06 DIIS
   @DF-RHF iter   7:  -525.27989017755476   -1.90476e-06   9.05290e-07 DIIS
   @DF-RHF iter   8:  -525.27989032532810   -1.47773e-07   1.40426e-07 DIIS
   @DF-RHF iter   9:  -525.27989032929736   -3.96926e-09   2.80733e-08 DIIS
   @DF-RHF iter  10:  -525.27989032943663   -1.39266e-10   1.14563e-08 DIIS
   @DF-RHF iter  11:  -525.27989032944822   -1.15961e-11   3.29841e-09 DIIS
   @DF-RHF iter  12:  -525.27989032944970   -1.47793e-12   5.18358e-10 DIIS
   @DF-RHF iter  13:  -525.27989032944993   -2.27374e-13   2.59676e-10 DIIS
   @DF-RHF iter  14:  -525.27989032945004   -1.13687e-13   5.83309e-11 DIIS
  Energy and wave function converged.


  ==> Post-Iterations <==

    Orbital Energies [Eh]
    ---------------------

    Doubly Occupied:

       1A    -15.598147     2A    -15.598127     3A    -15.598031
       4A    -15.598013     5A    -11.274314     6A    -11.274269
       7A    -11.274198     8A    -11.274153     9A    -11.273050
      10A    -11.273043    11A    -11.272935    12A    -11.272928
      13A     -1.313422    14A     -1.313306    15A     -1.224250
      16A     -1.224135    17A     -1.076878    18A     -1.076762
      19A     -0.922737    20A     -0.922622    21A     -0.919357
      22A     -0.919242    23A     -0.760711    24A     -0.760596
      25A     -0.738476    26A     -0.738361    27A     -0.706289
      28A     -0.706173    29A     -0.647762    30A     -0.647647
      31A     -0.580785    32A     -0.580670    33A     -0.574445
      34A     -0.574329    35A     -0.497187    36A     -0.497072
      37A     -0.434363    38A     -0.434248    39A     -0.415930
      40A     -0.415815    41A     -0.359999    42A     -0.359884

    Virtual:

      43A      0.034425    44A      0.034540    45A      0.040670
      46A      0.040783    47A      0.048317    48A      0.048427
      49A      0.058528    50A      0.058637    51A      0.067036
      52A      0.067153    53A      0.099344    54A      0.099460
      55A      0.100874    56A      0.100989    57A      0.114122
      58A      0.114241    59A      0.114873    60A      0.114990
      61A      0.123708    62A      0.123819    63A      0.125246
      64A      0.125362    65A      0.128593    66A      0.128705
      67A      0.132811    68A      0.132930    69A      0.158130
      70A      0.158244    71A      0.161011    72A      0.161127
      73A      0.161260    74A      0.161371    75A      0.163845
      76A      0.163957    77A      0.175111    78A      0.175223
      79A      0.186843    80A      0.186958    81A      0.203831
      82A      0.203949    83A      0.212461    84A      0.212578
      85A      0.250440    86A      0.250557    87A      0.267683
      88A      0.267797    89A      0.277981    90A      0.278097
      91A      0.287737    92A      0.287852    93A      0.293133
      94A      0.293248    95A      0.295679    96A      0.295790
      97A      0.314761    98A      0.314874    99A      0.320382
     100A      0.320498   101A      0.355357   102A      0.355469
     103A      0.357833   104A      0.357949   105A      0.364586
     106A      0.364701   107A      0.382510   108A      0.382624
     109A      0.398818   110A      0.398933   111A      0.409823
     112A      0.409937   113A      0.425382   114A      0.425495
     115A      0.433851   116A      0.433967   117A      0.437140
     118A      0.437254   119A      0.452020   120A      0.452133
     121A      0.471409   122A      0.471524   123A      0.492065
     124A      0.492180   125A      0.504788   126A      0.504903
     127A      0.514837   128A      0.514954   129A      0.524473
     130A      0.524588   131A      0.528592   132A      0.528708
     133A      0.554503   134A      0.554618   135A      0.570462
     136A      0.570576   137A      0.587461   138A      0.587575
     139A      0.591430   140A      0.591546   141A      0.593725
     142A      0.593840   143A      0.608857   144A      0.608970
     145A      0.643444   146A      0.643558   147A      0.644248
     148A      0.644362   149A      0.685061   150A      0.685177
     151A      0.687683   152A      0.687799   153A      0.689857
     154A      0.689972   155A      0.690268   156A      0.690383
     157A      0.694755   158A      0.694869   159A      0.703757
     160A      0.703871   161A      0.746485   162A      0.746599
     163A      0.754743   164A      0.754858   165A      0.766891
     166A      0.767006   167A      0.781330   168A      0.781446
     169A      0.799742   170A      0.799856   171A      0.802634
     172A      0.802750   173A      0.818940   174A      0.819056
     175A      0.830995   176A      0.831111   177A      0.847439
     178A      0.847554   179A      0.880470   180A      0.880585
     181A      0.886336   182A      0.886451   183A      0.894606
     184A      0.894723   185A      0.929197   186A      0.929313
     187A      0.939391   188A      0.939506   189A      0.949232
     190A      0.949347   191A      0.996578   192A      0.996692
     193A      0.998834   194A      0.998948   195A      1.012940
     196A      1.013056   197A      1.033296   198A      1.033411
     199A      1.051119   200A      1.051235   201A      1.089306
     202A      1.089421   203A      1.100370   204A      1.100486
     205A      1.122124   206A      1.122240   207A      1.123969
     208A      1.124084   209A      1.134288   210A      1.134403
     211A      1.158667   212A      1.158781   213A      1.173490
     214A      1.173605   215A      1.235342   216A      1.235457
     217A      1.238731   218A      1.238845   219A      1.309599
     220A      1.309714   221A      1.331073   222A      1.331188
     223A      1.414207   224A      1.414323   225A      1.451452
     226A      1.451567   227A      1.486063   228A      1.486177
     229A      1.488000   230A      1.488115   231A      1.499136
     232A      1.499251   233A      1.502770   234A      1.502886
     235A      1.518178   236A      1.518293   237A      1.572611
     238A      1.572726   239A      1.574117   240A      1.574233
     241A      1.587761   242A      1.587877   243A      1.635907
     244A      1.636023   245A      1.640430   246A      1.640545
     247A      1.648145   248A      1.648260   249A      1.676477
     250A      1.676592   251A      1.716915   252A      1.717031
     253A      1.746522   254A      1.746638   255A      1.755029
     256A      1.755144   257A      1.783687   258A      1.783803
     259A      1.815652   260A      1.815768   261A      1.893248
     262A      1.893364   263A      1.916063   264A      1.916178
     265A      1.964754   266A      1.964869   267A      1.987600
     268A      1.987715   269A      2.031128   270A      2.031243
     271A      2.091474   272A      2.091589   273A      2.100953
     274A      2.101068   275A      2.142879   276A      2.142994
     277A      2.163281   278A      2.163396   279A      2.190414
     280A      2.190529   281A      2.193227   282A      2.193342
     283A      2.200306   284A      2.200420   285A      2.202336
     286A      2.202451   287A      2.227551   288A      2.227666
     289A      2.312686   290A      2.312801   291A      2.355154
     292A      2.355269   293A      2.430882   294A      2.430997
     295A      2.438902   296A      2.439017   297A      2.519304
     298A      2.519420   299A      2.522320   300A      2.522435
     301A      2.584692   302A      2.584807   303A      2.606191
     304A      2.606307   305A      2.665150   306A      2.665265
     307A      2.675334   308A      2.675450   309A      2.686320
     310A      2.686435   311A      2.713910   312A      2.714025
     313A      2.718517   314A      2.718632   315A      2.843939
     316A      2.844055   317A      2.865686   318A      2.865801
     319A      2.939121   320A      2.939236   321A      3.001781
     322A      3.001896   323A      3.017797   324A      3.017912
     325A      3.032111   326A      3.032227   327A      3.094062
     328A      3.094178   329A      3.220241   330A      3.220357
     331A      3.255905   332A      3.256020   333A      3.284805
     334A      3.284920   335A      3.366065   336A      3.366180
     337A      3.413293   338A      3.413408   339A      3.514845
     340A      3.514960   341A      3.590580   342A      3.590695
     343A      3.627694   344A      3.627809   345A      3.977162
     346A      3.977277   347A      4.253410   348A      4.253526

    Final Occupation by Irrep:
              A
    DOCC [    42 ]

  @DF-RHF Final Energy:  -525.27989032945004

   => Energetics <=

    Nuclear Repulsion Energy =            472.7991261110909136
    One-Electron Energy =               -1646.3087095396856512
    Two-Electron Energy =                 648.2296930991448107
    Total Energy =                       -525.2798903294500406

Computation Completed


Properties will be evaluated at   0.000000,   0.000000,   0.000000 [a0]

Properties computed using the SCF density matrix

  Nuclear Dipole Moment: [e a0]
     X:  -259.9086      Y:  -614.1349      Z: -1297.5007

  Electronic Dipole Moment: [e a0]
     X:   259.9088      Y:   614.1349      Z:  1297.5012

  Dipole Moment: [e a0]
     X:     0.0002      Y:    -0.0001      Z:     0.0005     Total:     0.0005

  Dipole Moment: [D]
     X:     0.0005      Y:    -0.0001      Z:     0.0012     Total:     0.0013


*** tstop() called on atl1-1-01-013-8-r.pace.gatech.edu at Mon Nov 29 16:10:57 2021
Module time:
	user time   =      23.92 seconds =       0.40 minutes
	system time =       1.01 seconds =       0.02 minutes
	total time  =         14 seconds =       0.23 minutes
Total time:
	user time   =      23.92 seconds =       0.40 minutes
	system time =       1.01 seconds =       0.02 minutes
	total time  =         14 seconds =       0.23 minutes

  //>>>>>>>>>>>>>>>>>>>>>>>>>>>>>>>>>>>//
  //            Monomer A HF           //
  //<<<<<<<<<<<<<<<<<<<<<<<<<<<<<<<<<<<//


*** tstart() called on atl1-1-01-013-8-r.pace.gatech.edu
*** at Mon Nov 29 16:10:57 2021

   => Loading Basis Set <=

    Name: AUG-CC-PVDZ
    Role: ORBITAL
    Keyword: BASIS
    atoms 1-2, 11-12  entry N          line   218 file /storage/home/hhive1/csargent30/data/miniconda3/envs/psi4/share/psi4/basis/aug-cc-pvdz.gbs
    atoms 3-6, 13-16  entry H          line    40 file /storage/home/hhive1/csargent30/data/miniconda3/envs/psi4/share/psi4/basis/aug-cc-pvdz.gbs
    atoms 7-10, 17-20 entry C          line   182 file /storage/home/hhive1/csargent30/data/miniconda3/envs/psi4/share/psi4/basis/aug-cc-pvdz.gbs


         ---------------------------------------------------------
                                   SCF
               by Justin Turney, Rob Parrish, Andy Simmonett
                          and Daniel G. A. Smith
                              RHF Reference
                        2 Threads,   6675 MiB Core
         ---------------------------------------------------------

  ==> Geometry <==

    Molecular point group: c1
    Full point group: C1

    Geometry (in Bohr), charge = 0, multiplicity = 1:

       Center              X                  Y                   Z               Mass
    ------------   -----------------  -----------------  -----------------  -----------------
         N           -1.330847580000     0.980326580000     0.426270370000    14.003074004430
         N            3.953773330000     0.980326580000     0.426270370000    14.003074004430
         H            3.567136740000     4.352185690000    -0.942309730000     1.007825032230
         H           -0.944210980000     4.352185690000    -0.942309730000     1.007825032230
         H           -0.944210980000    -2.391532530000     1.794850470000     1.007825032230
         H            3.567136740000    -2.391532530000     1.794850470000     1.007825032230
         C            2.622925760000     2.940979740000    -0.426270370000    12.000000000000
         C            0.000000000000     2.940979740000    -0.426270370000    12.000000000000
         C            0.000000000000    -0.980326580000     1.278811120000    12.000000000000
         C            2.622925760000    -0.980326580000     1.278811120000    12.000000000000
      Gh(N)         -10.142073580000   -15.602587090000   -31.319144320000    14.003074004430
      Gh(N)          -4.857452670000   -15.602587090000   -31.319144320000    14.003074004430
      Gh(H)          -9.755436980000   -18.974446200000   -32.687724420000     1.007825032230
      Gh(H)          -9.755436980000   -12.230727980000   -29.950564220000     1.007825032230
      Gh(H)          -5.244089270000   -18.974446200000   -32.687724420000     1.007825032230
      Gh(H)          -5.244089270000   -12.230727980000   -29.950564220000     1.007825032230
      Gh(C)          -8.811226010000   -17.563240250000   -32.171685070000    12.000000000000
      Gh(C)          -8.811226010000   -13.641933930000   -30.466603570000    12.000000000000
      Gh(C)          -6.188300250000   -17.563240250000   -32.171685070000    12.000000000000
      Gh(C)          -6.188300250000   -13.641933930000   -30.466603570000    12.000000000000

  Running in c1 symmetry.

  Rotational constants: A =      0.05474  B =      0.00058  C =      0.00058 [cm^-1]
  Rotational constants: A =   1641.00469  B =     17.49014  C =     17.44623 [MHz]
  Nuclear repulsion =  212.551731110485349

  Charge       = 0
  Multiplicity = 1
  Electrons    = 42
  Nalpha       = 21
  Nbeta        = 21

  ==> Algorithm <==

  SCF Algorithm Type is DF.
  DIIS enabled.
  MOM disabled.
  Fractional occupation disabled.
  Guess Type is SAD.
  Energy threshold   = 1.00e-10
  Density threshold  = 1.00e-10
  Integral threshold = 1.00e-12

  ==> Primary Basis <==

  Basis Set: AUG-CC-PVDZ
    Blend: AUG-CC-PVDZ
    Number of shells: 148
    Number of basis functions: 348
    Number of Cartesian functions: 372
    Spherical Harmonics?: true
    Max angular momentum: 2

   => Loading Basis Set <=

    Name: (AUG-CC-PVDZ AUX)
    Role: JKFIT
    Keyword: DF_BASIS_SCF
    atoms 1-2, 11-12  entry N          line   212 file /storage/home/hhive1/csargent30/data/miniconda3/envs/psi4/share/psi4/basis/aug-cc-pvdz-jkfit.gbs
    atoms 3-6, 13-16  entry H          line    70 file /storage/home/hhive1/csargent30/data/miniconda3/envs/psi4/share/psi4/basis/aug-cc-pvdz-jkfit.gbs
    atoms 7-10, 17-20 entry C          line   154 file /storage/home/hhive1/csargent30/data/miniconda3/envs/psi4/share/psi4/basis/aug-cc-pvdz-jkfit.gbs

  ==> Integral Setup <==

  ==> DiskDFJK: Density-Fitted J/K Matrices <==

    J tasked:                  Yes
    K tasked:                  Yes
    wK tasked:                  No
    OpenMP threads:              2
    Integrals threads:           2
    Memory [MiB]:             5006
    Algorithm:                Core
    Integral Cache:           LOAD
    Schwarz Cutoff:          1E-12
    Fitting Condition:       1E-10

   => Auxiliary Basis Set <=

  Basis Set: (AUG-CC-PVDZ AUX)
    Blend: AUG-CC-PVDZ-JKFIT
    Number of shells: 432
    Number of basis functions: 1288
    Number of Cartesian functions: 1492
    Spherical Harmonics?: true
    Max angular momentum: 3

  Minimum eigenvalue in the overlap matrix is 9.4898452137E-06.
  Reciprocal condition number of the overlap matrix is 7.4017681339E-07.
    Using symmetric orthogonalization.

  ==> Pre-Iterations <==

  SCF Guess: Superposition of Atomic Densities via on-the-fly atomic UHF (no occupation information).

   -------------------------
    Irrep   Nso     Nmo
   -------------------------
     A        348     348
   -------------------------
    Total     348     348
   -------------------------

  ==> Iterations <==

                           Total Energy        Delta E     RMS |[F,P]|

   @DF-RHF iter SAD:  -262.32523125910194   -2.62325e+02   0.00000e+00
   @DF-RHF iter   1:  -262.53940798328608   -2.14177e-01   1.11985e-03 DIIS
   @DF-RHF iter   2:  -262.62878837592473   -8.93804e-02   4.10664e-04 DIIS
   @DF-RHF iter   3:  -262.63862292051942   -9.83454e-03   1.28248e-04 DIIS
   @DF-RHF iter   4:  -262.63984767379384   -1.22475e-03   3.77599e-05 DIIS
   @DF-RHF iter   5:  -262.63993727425611   -8.96005e-05   7.55558e-06 DIIS
   @DF-RHF iter   6:  -262.63994382451625   -6.55026e-06   2.45264e-06 DIIS
   @DF-RHF iter   7:  -262.63994477688971   -9.52373e-07   6.40130e-07 DIIS
   @DF-RHF iter   8:  -262.63994485077757   -7.38879e-08   9.91693e-08 DIIS
   @DF-RHF iter   9:  -262.63994485276311   -1.98554e-09   1.88228e-08 DIIS
   @DF-RHF iter  10:  -262.63994485283359   -7.04858e-11   3.19151e-09 DIIS
   @DF-RHF iter  11:  -262.63994485283672   -3.12639e-12   5.22317e-10 DIIS
   @DF-RHF iter  12:  -262.63994485283649    2.27374e-13   9.54340e-11 DIIS
  Energy and wave function converged.


  ==> Post-Iterations <==

    Orbital Energies [Eh]
    ---------------------

    Doubly Occupied:

       1A    -15.598072     2A    -15.598053     3A    -11.274239
       4A    -11.274194     5A    -11.272975     6A    -11.272969
       7A     -1.313347     8A     -1.224176     9A     -1.076803
      10A     -0.922662    11A     -0.919282    12A     -0.760637
      13A     -0.738402    14A     -0.706214    15A     -0.647687
      16A     -0.580711    17A     -0.574369    18A     -0.497113
      19A     -0.434288    20A     -0.415855    21A     -0.359924

    Virtual:

      22A      0.022401    23A      0.034497    24A      0.039477
      25A      0.040739    26A      0.041147    27A      0.048384
      28A      0.058591    29A      0.058820    30A      0.067113
      31A      0.079645    32A      0.085016    33A      0.099419
      34A      0.100948    35A      0.103962    36A      0.108477
      37A      0.108819    38A      0.114201    39A      0.114951
      40A      0.122463    41A      0.123776    42A      0.125322
      43A      0.125555    44A      0.128661    45A      0.130907
      46A      0.132889    47A      0.134118    48A      0.152073
      49A      0.152994    50A      0.158199    51A      0.159309
      52A      0.161084    53A      0.161326    54A      0.163914
      55A      0.175179    56A      0.176712    57A      0.186918
      58A      0.197766    59A      0.203868    60A      0.203908
      61A      0.206627    62A      0.212538    63A      0.222348
      64A      0.233576    65A      0.239403    66A      0.250517
      67A      0.255184    68A      0.267756    69A      0.270743
      70A      0.278057    71A      0.287812    72A      0.293207
      73A      0.295749    74A      0.302289    75A      0.314832
      76A      0.320457    77A      0.320604    78A      0.328124
      79A      0.331266    80A      0.344084    81A      0.355428
      82A      0.357908    83A      0.364661    84A      0.380464
      85A      0.382583    86A      0.385599    87A      0.398891
      88A      0.401237    89A      0.409895    90A      0.419236
      91A      0.424914    92A      0.425453    93A      0.433925
      94A      0.437212    95A      0.441897    96A      0.452092
      97A      0.460620    98A      0.461068    99A      0.471483
     100A      0.476050   101A      0.478784   102A      0.492140
     103A      0.504862   104A      0.507787   105A      0.514914
     106A      0.523731   107A      0.524547   108A      0.528668
     109A      0.535697   110A      0.554577   111A      0.557809
     112A      0.561478   113A      0.564459   114A      0.570535
     115A      0.581870   116A      0.587535   117A      0.591506
     118A      0.593799   119A      0.595975   120A      0.608929
     121A      0.615104   122A      0.620123   123A      0.636328
     124A      0.643517   125A      0.644321   126A      0.649320
     127A      0.651454   128A      0.679378   129A      0.685136
     130A      0.685279   131A      0.687758   132A      0.689932
     133A      0.690342   134A      0.694828   135A      0.703830
     136A      0.719854   137A      0.728356   138A      0.746558
     139A      0.746752   140A      0.754817   141A      0.766965
     142A      0.775645   143A      0.781406   144A      0.793596
     145A      0.799815   146A      0.802710   147A      0.811057
     148A      0.811942   149A      0.819016   150A      0.824715
     151A      0.831071   152A      0.847513   153A      0.848025
     154A      0.849148   155A      0.868570   156A      0.880544
     157A      0.886410   158A      0.888113   159A      0.894682
     160A      0.906067   161A      0.929077   162A      0.929272
     163A      0.939466   164A      0.947655   165A      0.949307
     166A      0.970744   167A      0.976897   168A      0.986600
     169A      0.996652   170A      0.998908   171A      1.013015
     172A      1.032383   173A      1.033370   174A      1.046893
     175A      1.051194   176A      1.076228   177A      1.089381
     178A      1.090241   179A      1.100445   180A      1.122199
     181A      1.124044   182A      1.130626   183A      1.134362
     184A      1.140228   185A      1.158740   186A      1.168552
     187A      1.170640   188A      1.173565   189A      1.192171
     190A      1.193203   191A      1.200435   192A      1.222281
     193A      1.235416   194A      1.238804   195A      1.250991
     196A      1.307520   197A      1.309674   198A      1.318224
     199A      1.326377   200A      1.329574   201A      1.331148
     202A      1.346770   203A      1.389179   204A      1.414282
     205A      1.448352   206A      1.451526   207A      1.455423
     208A      1.479097   209A      1.486137   210A      1.487168
     211A      1.488075   212A      1.499211   213A      1.502846
     214A      1.518252   215A      1.572686   216A      1.574192
     217A      1.587836   218A      1.635982   219A      1.640505
     220A      1.648219   221A      1.659205   222A      1.676552
     223A      1.698030   224A      1.716991   225A      1.746597
     226A      1.755104   227A      1.783762   228A      1.815727
     229A      1.893323   230A      1.916137   231A      1.964829
     232A      1.987674   233A      2.031202   234A      2.070193
     235A      2.091548   236A      2.101028   237A      2.102730
     238A      2.119409   239A      2.142953   240A      2.156642
     241A      2.159155   242A      2.163355   243A      2.190488
     244A      2.193301   245A      2.194826   246A      2.200380
     247A      2.202410   248A      2.227626   249A      2.234740
     250A      2.241169   251A      2.249626   252A      2.309981
     253A      2.312761   254A      2.319512   255A      2.355229
     256A      2.384771   257A      2.419175   258A      2.430957
     259A      2.435379   260A      2.438132   261A      2.438977
     262A      2.472642   263A      2.486690   264A      2.498287
     265A      2.519379   266A      2.522395   267A      2.525034
     268A      2.545961   269A      2.568294   270A      2.584766
     271A      2.592339   272A      2.606266   273A      2.625939
     274A      2.665224   275A      2.675409   276A      2.686395
     277A      2.713985   278A      2.716864   279A      2.718591
     280A      2.726617   281A      2.767900   282A      2.844014
     283A      2.865761   284A      2.904003   285A      2.939196
     286A      2.947193   287A      2.955717   288A      2.973307
     289A      3.001855   290A      3.017872   291A      3.032186
     292A      3.058297   293A      3.065196   294A      3.094137
     295A      3.113836   296A      3.220316   297A      3.245696
     298A      3.255980   299A      3.284880   300A      3.289647
     301A      3.321928   302A      3.337707   303A      3.340454
     304A      3.348625   305A      3.351349   306A      3.366140
     307A      3.412597   308A      3.413367   309A      3.470752
     310A      3.501952   311A      3.514920   312A      3.521360
     313A      3.590655   314A      3.604435   315A      3.605642
     316A      3.627769   317A      3.700482   318A      3.818922
     319A      3.830685   320A      3.940967   321A      3.969094
     322A      3.977236   323A      4.011401   324A      4.194756
     325A      4.242248   326A      4.253485   327A      4.441987
     328A      4.546827   329A      4.579274   330A      4.867637
     331A      4.976141   332A      5.057850   333A      5.261709
     334A      5.316538   335A      5.630196   336A      5.691322
     337A      5.827146   338A      5.952631   339A      6.283826
     340A      6.306888   341A      6.453765   342A      6.631199
     343A     18.125716   344A     18.207978   345A     19.017573
     346A     19.342998   347A     25.287059   348A     25.374779

    Final Occupation by Irrep:
              A
    DOCC [    21 ]

  @DF-RHF Final Energy:  -262.63994485283649

   => Energetics <=

    Nuclear Repulsion Energy =            212.5517311104853491
    One-Electron Energy =                -775.4594096380581050
    Two-Electron Energy =                 300.2677336747362915
    Total Energy =                       -262.6399448528364928

Computation Completed


Properties will be evaluated at   0.000000,   0.000000,   0.000000 [a0]

Properties computed using the SCF density matrix

  Nuclear Dipole Moment: [e a0]
     X:    55.0814      Y:    41.1737      Z:    17.9034

  Electronic Dipole Moment: [e a0]
     X:   -55.0814      Y:   -41.1737      Z:   -17.9034

  Dipole Moment: [e a0]
     X:    -0.0000      Y:     0.0000      Z:     0.0000     Total:     0.0000

  Dipole Moment: [D]
     X:    -0.0000      Y:     0.0000      Z:     0.0000     Total:     0.0000


*** tstop() called on atl1-1-01-013-8-r.pace.gatech.edu at Mon Nov 29 16:11:05 2021
Module time:
	user time   =      14.69 seconds =       0.24 minutes
	system time =       0.48 seconds =       0.01 minutes
	total time  =          8 seconds =       0.13 minutes
Total time:
	user time   =      38.62 seconds =       0.64 minutes
	system time =       1.49 seconds =       0.02 minutes
	total time  =         22 seconds =       0.37 minutes

  //>>>>>>>>>>>>>>>>>>>>>>>>>>>>>>>>>>>//
  //            Monomer B HF           //
  //<<<<<<<<<<<<<<<<<<<<<<<<<<<<<<<<<<<//


*** tstart() called on atl1-1-01-013-8-r.pace.gatech.edu
*** at Mon Nov 29 16:11:05 2021

   => Loading Basis Set <=

    Name: AUG-CC-PVDZ
    Role: ORBITAL
    Keyword: BASIS
    atoms 1-2, 11-12  entry N          line   218 file /storage/home/hhive1/csargent30/data/miniconda3/envs/psi4/share/psi4/basis/aug-cc-pvdz.gbs
    atoms 3-6, 13-16  entry H          line    40 file /storage/home/hhive1/csargent30/data/miniconda3/envs/psi4/share/psi4/basis/aug-cc-pvdz.gbs
    atoms 7-10, 17-20 entry C          line   182 file /storage/home/hhive1/csargent30/data/miniconda3/envs/psi4/share/psi4/basis/aug-cc-pvdz.gbs


         ---------------------------------------------------------
                                   SCF
               by Justin Turney, Rob Parrish, Andy Simmonett
                          and Daniel G. A. Smith
                              RHF Reference
                        2 Threads,   6675 MiB Core
         ---------------------------------------------------------

  ==> Geometry <==

    Molecular point group: c1
    Full point group: C1

    Geometry (in Bohr), charge = 0, multiplicity = 1:

       Center              X                  Y                   Z               Mass
    ------------   -----------------  -----------------  -----------------  -----------------
      Gh(N)          -1.330847580000     0.980326580000     0.426270370000    14.003074004430
      Gh(N)           3.953773330000     0.980326580000     0.426270370000    14.003074004430
      Gh(H)           3.567136740000     4.352185690000    -0.942309730000     1.007825032230
      Gh(H)          -0.944210980000     4.352185690000    -0.942309730000     1.007825032230
      Gh(H)          -0.944210980000    -2.391532530000     1.794850470000     1.007825032230
      Gh(H)           3.567136740000    -2.391532530000     1.794850470000     1.007825032230
      Gh(C)           2.622925760000     2.940979740000    -0.426270370000    12.000000000000
      Gh(C)           0.000000000000     2.940979740000    -0.426270370000    12.000000000000
      Gh(C)           0.000000000000    -0.980326580000     1.278811120000    12.000000000000
      Gh(C)           2.622925760000    -0.980326580000     1.278811120000    12.000000000000
         N          -10.142073580000   -15.602587090000   -31.319144320000    14.003074004430
         N           -4.857452670000   -15.602587090000   -31.319144320000    14.003074004430
         H           -9.755436980000   -18.974446200000   -32.687724420000     1.007825032230
         H           -9.755436980000   -12.230727980000   -29.950564220000     1.007825032230
         H           -5.244089270000   -18.974446200000   -32.687724420000     1.007825032230
         H           -5.244089270000   -12.230727980000   -29.950564220000     1.007825032230
         C           -8.811226010000   -17.563240250000   -32.171685070000    12.000000000000
         C           -8.811226010000   -13.641933930000   -30.466603570000    12.000000000000
         C           -6.188300250000   -17.563240250000   -32.171685070000    12.000000000000
         C           -6.188300250000   -13.641933930000   -30.466603570000    12.000000000000

  Running in c1 symmetry.

  Rotational constants: A =      0.05474  B =      0.00058  C =      0.00058 [cm^-1]
  Rotational constants: A =   1641.00469  B =     17.49014  C =     17.44623 [MHz]
  Nuclear repulsion =  212.551731074928114

  Charge       = 0
  Multiplicity = 1
  Electrons    = 42
  Nalpha       = 21
  Nbeta        = 21

  ==> Algorithm <==

  SCF Algorithm Type is DF.
  DIIS enabled.
  MOM disabled.
  Fractional occupation disabled.
  Guess Type is SAD.
  Energy threshold   = 1.00e-10
  Density threshold  = 1.00e-10
  Integral threshold = 1.00e-12

  ==> Primary Basis <==

  Basis Set: AUG-CC-PVDZ
    Blend: AUG-CC-PVDZ
    Number of shells: 148
    Number of basis functions: 348
    Number of Cartesian functions: 372
    Spherical Harmonics?: true
    Max angular momentum: 2

   => Loading Basis Set <=

    Name: (AUG-CC-PVDZ AUX)
    Role: JKFIT
    Keyword: DF_BASIS_SCF
    atoms 1-2, 11-12  entry N          line   212 file /storage/home/hhive1/csargent30/data/miniconda3/envs/psi4/share/psi4/basis/aug-cc-pvdz-jkfit.gbs
    atoms 3-6, 13-16  entry H          line    70 file /storage/home/hhive1/csargent30/data/miniconda3/envs/psi4/share/psi4/basis/aug-cc-pvdz-jkfit.gbs
    atoms 7-10, 17-20 entry C          line   154 file /storage/home/hhive1/csargent30/data/miniconda3/envs/psi4/share/psi4/basis/aug-cc-pvdz-jkfit.gbs

  ==> Integral Setup <==

  ==> DiskDFJK: Density-Fitted J/K Matrices <==

    J tasked:                  Yes
    K tasked:                  Yes
    wK tasked:                  No
    OpenMP threads:              2
    Integrals threads:           2
    Memory [MiB]:             5006
    Algorithm:                Core
    Integral Cache:           LOAD
    Schwarz Cutoff:          1E-12
    Fitting Condition:       1E-10

   => Auxiliary Basis Set <=

  Basis Set: (AUG-CC-PVDZ AUX)
    Blend: AUG-CC-PVDZ-JKFIT
    Number of shells: 432
    Number of basis functions: 1288
    Number of Cartesian functions: 1492
    Spherical Harmonics?: true
    Max angular momentum: 3

  Minimum eigenvalue in the overlap matrix is 9.4898452137E-06.
  Reciprocal condition number of the overlap matrix is 7.4017681339E-07.
    Using symmetric orthogonalization.

  ==> Pre-Iterations <==

  SCF Guess: Superposition of Atomic Densities via on-the-fly atomic UHF (no occupation information).

   -------------------------
    Irrep   Nso     Nmo
   -------------------------
     A        348     348
   -------------------------
    Total     348     348
   -------------------------

  ==> Iterations <==

                           Total Energy        Delta E     RMS |[F,P]|

   @DF-RHF iter SAD:  -262.32523125250452   -2.62325e+02   0.00000e+00
   @DF-RHF iter   1:  -262.53940797844717   -2.14177e-01   1.11985e-03 DIIS
   @DF-RHF iter   2:  -262.62878837101039   -8.93804e-02   4.10664e-04 DIIS
   @DF-RHF iter   3:  -262.63862291548958   -9.83454e-03   1.28248e-04 DIIS
   @DF-RHF iter   4:  -262.63984766875410   -1.22475e-03   3.77599e-05 DIIS
   @DF-RHF iter   5:  -262.63993726921626   -8.96005e-05   7.55558e-06 DIIS
   @DF-RHF iter   6:  -262.63994381947549   -6.55026e-06   2.45264e-06 DIIS
   @DF-RHF iter   7:  -262.63994477184889   -9.52373e-07   6.40130e-07 DIIS
   @DF-RHF iter   8:  -262.63994484573732   -7.38884e-08   9.91693e-08 DIIS
   @DF-RHF iter   9:  -262.63994484772422   -1.98690e-09   1.88228e-08 DIIS
   @DF-RHF iter  10:  -262.63994484779380   -6.95763e-11   3.19151e-09 DIIS
   @DF-RHF iter  11:  -262.63994484779579   -1.98952e-12   5.22317e-10 DIIS
   @DF-RHF iter  12:  -262.63994484779556    2.27374e-13   9.54334e-11 DIIS
  Energy and wave function converged.


  ==> Post-Iterations <==

    Orbital Energies [Eh]
    ---------------------

    Doubly Occupied:

       1A    -15.598072     2A    -15.598053     3A    -11.274239
       4A    -11.274194     5A    -11.272975     6A    -11.272969
       7A     -1.313347     8A     -1.224176     9A     -1.076803
      10A     -0.922662    11A     -0.919282    12A     -0.760637
      13A     -0.738402    14A     -0.706214    15A     -0.647687
      16A     -0.580711    17A     -0.574369    18A     -0.497113
      19A     -0.434288    20A     -0.415855    21A     -0.359924

    Virtual:

      22A      0.022286    23A      0.034497    24A      0.039364
      25A      0.040738    26A      0.041036    27A      0.048383
      28A      0.058591    29A      0.058711    30A      0.067113
      31A      0.079526    32A      0.084902    33A      0.099419
      34A      0.100948    35A      0.103852    36A      0.108359
      37A      0.108706    38A      0.114201    39A      0.114951
      40A      0.122346    41A      0.123776    42A      0.125322
      43A      0.125442    44A      0.128661    45A      0.130789
      46A      0.132889    47A      0.134006    48A      0.151963
      49A      0.152881    50A      0.158199    51A      0.159193
      52A      0.161084    53A      0.161326    54A      0.163914
      55A      0.175179    56A      0.176601    57A      0.186918
      58A      0.197652    59A      0.203754    60A      0.203908
      61A      0.206507    62A      0.212538    63A      0.222233
      64A      0.233464    65A      0.239291    66A      0.250517
      67A      0.255068    68A      0.267756    69A      0.270627
      70A      0.278056    71A      0.287812    72A      0.293207
      73A      0.295749    74A      0.302174    75A      0.314832
      76A      0.320457    77A      0.320491    78A      0.328010
      79A      0.331150    80A      0.343971    81A      0.355428
      82A      0.357908    83A      0.364661    84A      0.380350
      85A      0.382582    86A      0.385483    87A      0.398891
      88A      0.401123    89A      0.409895    90A      0.419123
      91A      0.424798    92A      0.425453    93A      0.433925
      94A      0.437212    95A      0.441782    96A      0.452092
      97A      0.460505    98A      0.460953    99A      0.471483
     100A      0.475935   101A      0.478670   102A      0.492140
     103A      0.504862   104A      0.507673   105A      0.514914
     106A      0.523618   107A      0.524547   108A      0.528668
     109A      0.535581   110A      0.554577   111A      0.557695
     112A      0.561363   113A      0.564344   114A      0.570535
     115A      0.581756   116A      0.587535   117A      0.591506
     118A      0.593799   119A      0.595861   120A      0.608929
     121A      0.614989   122A      0.620008   123A      0.636212
     124A      0.643517   125A      0.644321   126A      0.649205
     127A      0.651338   128A      0.679264   129A      0.685136
     130A      0.685166   131A      0.687758   132A      0.689932
     133A      0.690342   134A      0.694828   135A      0.703829
     136A      0.719740   137A      0.728239   138A      0.746558
     139A      0.746636   140A      0.754817   141A      0.766965
     142A      0.775529   143A      0.781406   144A      0.793481
     145A      0.799815   146A      0.802710   147A      0.810943
     148A      0.811828   149A      0.819016   150A      0.824601
     151A      0.831071   152A      0.847513   153A      0.847910
     154A      0.849034   155A      0.868455   156A      0.880544
     157A      0.886410   158A      0.887997   159A      0.894682
     160A      0.905952   161A      0.928963   162A      0.929272
     163A      0.939466   164A      0.947540   165A      0.949307
     166A      0.970628   167A      0.976783   168A      0.986486
     169A      0.996652   170A      0.998908   171A      1.013015
     172A      1.032269   173A      1.033370   174A      1.046778
     175A      1.051194   176A      1.076113   177A      1.089381
     178A      1.090125   179A      1.100445   180A      1.122199
     181A      1.124044   182A      1.130512   183A      1.134362
     184A      1.140113   185A      1.158740   186A      1.168437
     187A      1.170524   188A      1.173565   189A      1.192056
     190A      1.193088   191A      1.200320   192A      1.222166
     193A      1.235416   194A      1.238804   195A      1.250875
     196A      1.307405   197A      1.309674   198A      1.318108
     199A      1.326262   200A      1.329458   201A      1.331148
     202A      1.346655   203A      1.389064   204A      1.414282
     205A      1.448238   206A      1.451526   207A      1.455308
     208A      1.478982   209A      1.486137   210A      1.487054
     211A      1.488075   212A      1.499211   213A      1.502846
     214A      1.518252   215A      1.572686   216A      1.574192
     217A      1.587836   218A      1.635982   219A      1.640505
     220A      1.648219   221A      1.659090   222A      1.676552
     223A      1.697915   224A      1.716991   225A      1.746597
     226A      1.755104   227A      1.783762   228A      1.815727
     229A      1.893323   230A      1.916137   231A      1.964829
     232A      1.987674   233A      2.031202   234A      2.070078
     235A      2.091548   236A      2.101028   237A      2.102614
     238A      2.119294   239A      2.142953   240A      2.156527
     241A      2.159040   242A      2.163355   243A      2.190488
     244A      2.193301   245A      2.194711   246A      2.200380
     247A      2.202410   248A      2.227626   249A      2.234625
     250A      2.241054   251A      2.249511   252A      2.309866
     253A      2.312761   254A      2.319397   255A      2.355229
     256A      2.384656   257A      2.419060   258A      2.430957
     259A      2.435264   260A      2.438017   261A      2.438977
     262A      2.472527   263A      2.486575   264A      2.498173
     265A      2.519379   266A      2.522395   267A      2.524918
     268A      2.545846   269A      2.568179   270A      2.584766
     271A      2.592223   272A      2.606266   273A      2.625824
     274A      2.665224   275A      2.675409   276A      2.686395
     277A      2.713985   278A      2.716749   279A      2.718591
     280A      2.726502   281A      2.767785   282A      2.844014
     283A      2.865761   284A      2.903888   285A      2.939196
     286A      2.947078   287A      2.955602   288A      2.973192
     289A      3.001855   290A      3.017872   291A      3.032186
     292A      3.058182   293A      3.065081   294A      3.094137
     295A      3.113721   296A      3.220316   297A      3.245580
     298A      3.255980   299A      3.284880   300A      3.289532
     301A      3.321813   302A      3.337592   303A      3.340339
     304A      3.348510   305A      3.351234   306A      3.366140
     307A      3.412482   308A      3.413367   309A      3.470638
     310A      3.501837   311A      3.514920   312A      3.521245
     313A      3.590655   314A      3.604319   315A      3.605526
     316A      3.627769   317A      3.700367   318A      3.818807
     319A      3.830570   320A      3.940851   321A      3.968979
     322A      3.977236   323A      4.011285   324A      4.194640
     325A      4.242133   326A      4.253485   327A      4.441871
     328A      4.546712   329A      4.579159   330A      4.867522
     331A      4.976026   332A      5.057735   333A      5.261594
     334A      5.316422   335A      5.630081   336A      5.691207
     337A      5.827030   338A      5.952516   339A      6.283711
     340A      6.306773   341A      6.453650   342A      6.631083
     343A     18.125600   344A     18.207862   345A     19.017457
     346A     19.342883   347A     25.286944   348A     25.374664

    Final Occupation by Irrep:
              A
    DOCC [    21 ]

  @DF-RHF Final Energy:  -262.63994484779556

   => Energetics <=

    Nuclear Repulsion Energy =            212.5517310749281137
    One-Electron Energy =                -775.4594095512347849
    Two-Electron Energy =                 300.2677336285111664
    Total Energy =                       -262.6399448477955616

Computation Completed


Properties will be evaluated at   0.000000,   0.000000,   0.000000 [a0]

Properties computed using the SCF density matrix

  Nuclear Dipole Moment: [e a0]
     X:  -314.9901      Y:  -655.3087      Z: -1315.4041

  Electronic Dipole Moment: [e a0]
     X:   314.9901      Y:   655.3087      Z:  1315.4041

  Dipole Moment: [e a0]
     X:     0.0000      Y:    -0.0000      Z:    -0.0000     Total:     0.0000

  Dipole Moment: [D]
     X:     0.0000      Y:    -0.0000      Z:    -0.0000     Total:     0.0000


*** tstop() called on atl1-1-01-013-8-r.pace.gatech.edu at Mon Nov 29 16:11:13 2021
Module time:
	user time   =      14.75 seconds =       0.25 minutes
	system time =       0.44 seconds =       0.01 minutes
	total time  =          8 seconds =       0.13 minutes
Total time:
	user time   =      53.38 seconds =       0.89 minutes
	system time =       1.93 seconds =       0.03 minutes
	total time  =         30 seconds =       0.50 minutes
  Constructing Basis Sets for SAPT...

   => Loading Basis Set <=

    Name: (AUG-CC-PVDZ AUX)
    Role: RIFIT
    Keyword: DF_BASIS_SAPT
    atoms 1-2, 11-12  entry N          line   158 file /storage/home/hhive1/csargent30/data/miniconda3/envs/psi4/share/psi4/basis/aug-cc-pvdz-ri.gbs
    atoms 3-6, 13-16  entry H          line    30 file /storage/home/hhive1/csargent30/data/miniconda3/envs/psi4/share/psi4/basis/aug-cc-pvdz-ri.gbs
    atoms 7-10, 17-20 entry C          line   112 file /storage/home/hhive1/csargent30/data/miniconda3/envs/psi4/share/psi4/basis/aug-cc-pvdz-ri.gbs


  //>>>>>>>>>>>>>>>>>>>>>>>>>>>>>>>>>>>//
  //               SAPT0               //
  //<<<<<<<<<<<<<<<<<<<<<<<<<<<<<<<<<<<//


*** tstart() called on atl1-1-01-013-8-r.pace.gatech.edu
*** at Mon Nov 29 16:11:13 2021

        SAPT0
    Ed Hohenstein
     6 June 2009

      Orbital Information
  --------------------------
    NSO        =       348
    NMO        =       348
    NRI        =      1048
    NOCC A     =        21
    NOCC B     =        21
    FOCC A     =         6
    FOCC B     =         6
    NVIR A     =       327
    NVIR B     =       327

    Elst10,r            =    -0.000000631706 [Eh]
    Exch10              =     0.000000000000 [Eh]
    Exch10 (S^2)        =     0.000000000000 [Eh]

    Iter     Energy [mEh]          dE [mEh]         Residual      Time [s]
       1      -0.00000213       0.000002132       0.016513970             0
       2      -0.00000189      -0.000000246       0.003638530             1
       3      -0.00000204       0.000000154       0.001759001             1
       4      -0.00000209       0.000000046       0.000594306             1
       5      -0.00000208      -0.000000006       0.000397559             2
       6      -0.00000207      -0.000000006       0.000122215             2
       7      -0.00000208       0.000000001       0.000039735             2
       8      -0.00000208       0.000000000       0.000011318             3
       9      -0.00000208      -0.000000000       0.000003838             3
      10      -0.00000208      -0.000000000       0.000000970             3

    CHF Iterations converged


    Iter     Energy [mEh]          dE [mEh]         Residual      Time [s]
       1      -0.00000045       0.000000447       0.007600917             1
       2      -0.00000040      -0.000000049       0.001565635             1
       3      -0.00000044       0.000000043       0.000623868             2
       4      -0.00000044       0.000000004       0.000342029             2
       5      -0.00000044      -0.000000002       0.000161298             2
       6      -0.00000044      -0.000000001       0.000050991             3
       7      -0.00000044       0.000000000       0.000016299             3
       8      -0.00000044       0.000000000       0.000003606             3
       9      -0.00000044      -0.000000000       0.000001463             4
      10      -0.00000044      -0.000000000       0.000000459             4

    CHF Iterations converged

    Ind20,r (A<-B)      =    -0.000000002076 [Eh]
    Ind20,r (B<-A)      =    -0.000000000442 [Eh]
    Ind20,r             =    -0.000000002518 [Eh]
    Exch-Ind20,r (A<-B) =     0.000000000000 [Eh]
    Exch-Ind20,r (B<-A) =     0.000000000000 [Eh]
    Exch-Ind20,r        =     0.000000000000 [Eh]
    Disp20              =    -0.000000597156 [Eh]
    Disp20 (SS)         =    -0.000000298578 [Eh]
    Disp20 (OS)         =    -0.000000298578 [Eh]
    Exch-Disp20         =     0.000000000000 [Eh]
    Exch-Disp20 (SS)    =     0.000000000000 [Eh]
    Exch-Disp20 (OS)    =     0.000000000000 [Eh]

    SAPT Results
  --------------------------------------------------------------------------------------------------------
    Electrostatics                 -0.00063171 [mEh]      -0.00039640 [kcal/mol]      -0.00165854 [kJ/mol]
      Elst10,r                     -0.00063171 [mEh]      -0.00039640 [kcal/mol]      -0.00165854 [kJ/mol]

    Exchange                        0.00000000 [mEh]       0.00000000 [kcal/mol]       0.00000000 [kJ/mol]
      Exch10                        0.00000000 [mEh]       0.00000000 [kcal/mol]       0.00000000 [kJ/mol]
      Exch10(S^2)                   0.00000000 [mEh]       0.00000000 [kcal/mol]       0.00000000 [kJ/mol]

    Induction                       0.00000289 [mEh]       0.00000181 [kcal/mol]       0.00000758 [kJ/mol]
      Ind20,r                      -0.00000252 [mEh]      -0.00000158 [kcal/mol]      -0.00000661 [kJ/mol]
      Exch-Ind20,r                  0.00000000 [mEh]       0.00000000 [kcal/mol]       0.00000000 [kJ/mol]
      delta HF,r (2)                0.00000541 [mEh]       0.00000339 [kcal/mol]       0.00001419 [kJ/mol]

    Dispersion                     -0.00059716 [mEh]      -0.00037472 [kcal/mol]      -0.00156783 [kJ/mol]
      Disp20                       -0.00059716 [mEh]      -0.00037472 [kcal/mol]      -0.00156783 [kJ/mol]
      Exch-Disp20                   0.00000000 [mEh]       0.00000000 [kcal/mol]       0.00000000 [kJ/mol]
      Disp20 (SS)                  -0.00029858 [mEh]      -0.00018736 [kcal/mol]      -0.00078392 [kJ/mol]
      Disp20 (OS)                  -0.00029858 [mEh]      -0.00018736 [kcal/mol]      -0.00078392 [kJ/mol]
      Exch-Disp20 (SS)              0.00000000 [mEh]       0.00000000 [kcal/mol]       0.00000000 [kJ/mol]
      Exch-Disp20 (OS)              0.00000000 [mEh]       0.00000000 [kcal/mol]       0.00000000 [kJ/mol]

  Total HF                         -0.00062882 [mEh]      -0.00039459 [kcal/mol]      -0.00165096 [kJ/mol]
  Total SAPT0                      -0.00122597 [mEh]      -0.00076931 [kcal/mol]      -0.00321879 [kJ/mol]

  Special recipe for scaled SAPT0 (see Manual):
    Electrostatics sSAPT0          -0.00063171 [mEh]      -0.00039640 [kcal/mol]      -0.00165854 [kJ/mol]
    Exchange sSAPT0                 0.00000000 [mEh]       0.00000000 [kcal/mol]       0.00000000 [kJ/mol]
    Induction sSAPT0                0.00000289 [mEh]       0.00000181 [kcal/mol]       0.00000758 [kJ/mol]
    Dispersion sSAPT0              -0.00059716 [mEh]      -0.00037472 [kcal/mol]      -0.00156783 [kJ/mol]
  Total sSAPT0                     -0.00122597 [mEh]      -0.00076931 [kcal/mol]      -0.00321879 [kJ/mol]
  --------------------------------------------------------------------------------------------------------

*** tstop() called on atl1-1-01-013-8-r.pace.gatech.edu at Mon Nov 29 16:11:57 2021
Module time:
	user time   =      36.43 seconds =       0.61 minutes
	system time =       8.34 seconds =       0.14 minutes
	total time  =         44 seconds =       0.73 minutes
Total time:
	user time   =      90.04 seconds =       1.50 minutes
	system time =      10.28 seconds =       0.17 minutes
	total time  =         74 seconds =       1.23 minutes


Warning! sapt0 does not have an associated derived wavefunction.The returned wavefunction is the dimer SCF wavefunction.


    Psi4 stopped on: Monday, 29 November 2021 04:11PM
    Psi4 wall time for execution: 0:01:14.28

*** Psi4 exiting successfully. Buy a developer a beer!
