
    -----------------------------------------------------------------------
          Psi4: An Open-Source Ab Initio Electronic Structure Package
                               Psi4 1.4.1 release

                         Git: Rev {HEAD} cd00f19 


    D. G. A. Smith, L. A. Burns, A. C. Simmonett, R. M. Parrish,
    M. C. Schieber, R. Galvelis, P. Kraus, H. Kruse, R. Di Remigio,
    A. Alenaizan, A. M. James, S. Lehtola, J. P. Misiewicz, M. Scheurer,
    R. A. Shaw, J. B. Schriber, Y. Xie, Z. L. Glick, D. A. Sirianni,
    J. S. O'Brien, J. M. Waldrop, A. Kumar, E. G. Hohenstein,
    B. P. Pritchard, B. R. Brooks, H. F. Schaefer III, A. Yu. Sokolov,
    K. Patkowski, A. E. DePrince III, U. Bozkaya, R. A. King,
    F. A. Evangelista, J. M. Turney, T. D. Crawford, C. D. Sherrill,
    J. Chem. Phys. 152(18) 184108 (2020). https://doi.org/10.1063/5.0006002

                            Additional Code Authors
    E. T. Seidl, C. L. Janssen, E. F. Valeev, M. L. Leininger,
    J. F. Gonthier, R. M. Richard, H. R. McAlexander, M. Saitow, X. Wang,
    P. Verma, and M. H. Lechner

             Previous Authors, Complete List of Code Contributors,
                       and Citations for Specific Modules
    https://github.com/psi4/psi4/blob/master/codemeta.json
    https://github.com/psi4/psi4/graphs/contributors
    http://psicode.org/psi4manual/master/introduction.html#citing-psifour

    -----------------------------------------------------------------------


    Psi4 started on: Monday, 29 November 2021 04:10PM

    Process ID: 430065
    Host:       atl1-1-01-013-14-l.pace.gatech.edu
    PSIDATADIR: /storage/home/hhive1/csargent30/data/miniconda3/envs/psi4/share/psi4
    Memory:     500.0 MiB
    Threads:    2
    
  ==> Input File <==

--------------------------------------------------------------------------
# PSI4 file produced by CrystaLattE

# Generated from:               pyrazine.xyz
# Psithon input for N-mer:      2mer-0+413
# Number of atoms per monomer:  [10, 10]
# Number of replicas:           8
# COM priority:                 1.381260904703e-05
# Minimum COM separations:      22.055 
# Separation priority:          2.010181377582e-05
# Minimum monomer separations:  19.462 
# Cutoff priority:              5.465715142985e-07
# Nuclear repulsion energy:     467.3815616969239

memory 7 GB

molecule Dimer_0_413 {
  N           -1.33084758       0.98032658       0.42627037 
  N            3.95377333       0.98032658       0.42627037 
  H            3.56713674       4.35218569      -0.94230973 
  H           -0.94421098       4.35218569      -0.94230973 
  H           -0.94421098      -2.39153253       1.79485047 
  H            3.56713674      -2.39153253       1.79485047 
  C            2.62292576       2.94097974      -0.42627037 
  C            0.00000000       2.94097974      -0.42627037 
  C            0.00000000      -0.98032658       1.27881112 
  C            2.62292576      -0.98032658       1.27881112 
--
  N          -27.76452559      -4.54731131     -31.31914432 
  N          -22.47990468      -4.54731131     -31.31914432 
  H          -27.37788899      -7.91917042     -32.68772442 
  H          -27.37788899      -1.17545220     -29.95056422 
  H          -22.86654128      -7.91917042     -32.68772442 
  H          -22.86654128      -1.17545220     -29.95056422 
  C          -26.43367802      -6.50796447     -32.17168507 
  C          -26.43367802      -2.58665815     -30.46660357 
  C          -23.81075226      -6.50796447     -32.17168507 
  C          -23.81075226      -2.58665815     -30.46660357 
units = au
no_com
no_reorient
}

set {
  e_convergence 10
  d_convergence 10
  scf_type df
  mp2_type df
  cc_type df
  freeze_core true
}

energy('sapt0/aug-cc-pvdz')

--------------------------------------------------------------------------

  Memory set to   6.519 GiB by Python driver.

Scratch directory: /tmp/

Scratch directory: /tmp/

  //>>>>>>>>>>>>>>>>>>>>>>>>>>>>>>>>>>>//
  //              Dimer HF             //
  //<<<<<<<<<<<<<<<<<<<<<<<<<<<<<<<<<<<//


*** tstart() called on atl1-1-01-013-14-l.pace.gatech.edu
*** at Mon Nov 29 16:10:44 2021

   => Loading Basis Set <=

    Name: AUG-CC-PVDZ
    Role: ORBITAL
    Keyword: BASIS
    atoms 1-2, 11-12  entry N          line   218 file /storage/home/hhive1/csargent30/data/miniconda3/envs/psi4/share/psi4/basis/aug-cc-pvdz.gbs 
    atoms 3-6, 13-16  entry H          line    40 file /storage/home/hhive1/csargent30/data/miniconda3/envs/psi4/share/psi4/basis/aug-cc-pvdz.gbs 
    atoms 7-10, 17-20 entry C          line   182 file /storage/home/hhive1/csargent30/data/miniconda3/envs/psi4/share/psi4/basis/aug-cc-pvdz.gbs 


         ---------------------------------------------------------
                                   SCF
               by Justin Turney, Rob Parrish, Andy Simmonett
                          and Daniel G. A. Smith
                              RHF Reference
                        2 Threads,   6675 MiB Core
         ---------------------------------------------------------

  ==> Geometry <==

    Molecular point group: c1
    Full point group: C1

    Geometry (in Bohr), charge = 0, multiplicity = 1:

       Center              X                  Y                   Z               Mass       
    ------------   -----------------  -----------------  -----------------  -----------------
         N           -1.330847580000     0.980326580000     0.426270370000    14.003074004430
         N            3.953773330000     0.980326580000     0.426270370000    14.003074004430
         H            3.567136740000     4.352185690000    -0.942309730000     1.007825032230
         H           -0.944210980000     4.352185690000    -0.942309730000     1.007825032230
         H           -0.944210980000    -2.391532530000     1.794850470000     1.007825032230
         H            3.567136740000    -2.391532530000     1.794850470000     1.007825032230
         C            2.622925760000     2.940979740000    -0.426270370000    12.000000000000
         C            0.000000000000     2.940979740000    -0.426270370000    12.000000000000
         C            0.000000000000    -0.980326580000     1.278811120000    12.000000000000
         C            2.622925760000    -0.980326580000     1.278811120000    12.000000000000
         N          -27.764525590000    -4.547311310000   -31.319144320000    14.003074004430
         N          -22.479904680000    -4.547311310000   -31.319144320000    14.003074004430
         H          -27.377888990000    -7.919170420000   -32.687724420000     1.007825032230
         H          -27.377888990000    -1.175452200000   -29.950564220000     1.007825032230
         H          -22.866541280000    -7.919170420000   -32.687724420000     1.007825032230
         H          -22.866541280000    -1.175452200000   -29.950564220000     1.007825032230
         C          -26.433678020000    -6.507964470000   -32.171685070000    12.000000000000
         C          -26.433678020000    -2.586658150000   -30.466603570000    12.000000000000
         C          -23.810752260000    -6.507964470000   -32.171685070000    12.000000000000
         C          -23.810752260000    -2.586658150000   -30.466603570000    12.000000000000

  Running in c1 symmetry.

  Rotational constants: A =      0.06290  B =      0.00046  C =      0.00046 [cm^-1]
  Rotational constants: A =   1885.72223  B =     13.72150  C =     13.71246 [MHz]
  Nuclear repulsion =  467.381561659527165

  Charge       = 0
  Multiplicity = 1
  Electrons    = 84
  Nalpha       = 42
  Nbeta        = 42

  ==> Algorithm <==

  SCF Algorithm Type is DF.
  DIIS enabled.
  MOM disabled.
  Fractional occupation disabled.
  Guess Type is SAD.
  Energy threshold   = 1.00e-10
  Density threshold  = 1.00e-10
  Integral threshold = 1.00e-12

  ==> Primary Basis <==

  Basis Set: AUG-CC-PVDZ
    Blend: AUG-CC-PVDZ
    Number of shells: 148
    Number of basis functions: 348
    Number of Cartesian functions: 372
    Spherical Harmonics?: true
    Max angular momentum: 2

   => Loading Basis Set <=

    Name: (AUG-CC-PVDZ AUX)
    Role: JKFIT
    Keyword: DF_BASIS_SCF
    atoms 1-2, 11-12  entry N          line   212 file /storage/home/hhive1/csargent30/data/miniconda3/envs/psi4/share/psi4/basis/aug-cc-pvdz-jkfit.gbs 
    atoms 3-6, 13-16  entry H          line    70 file /storage/home/hhive1/csargent30/data/miniconda3/envs/psi4/share/psi4/basis/aug-cc-pvdz-jkfit.gbs 
    atoms 7-10, 17-20 entry C          line   154 file /storage/home/hhive1/csargent30/data/miniconda3/envs/psi4/share/psi4/basis/aug-cc-pvdz-jkfit.gbs 

  ==> Integral Setup <==

  ==> DiskDFJK: Density-Fitted J/K Matrices <==

    J tasked:                  Yes
    K tasked:                  Yes
    wK tasked:                  No
    OpenMP threads:              2
    Integrals threads:           2
    Memory [MiB]:             5006
    Algorithm:                Core
    Integral Cache:           SAVE
    Schwarz Cutoff:          1E-12
    Fitting Condition:       1E-10

   => Auxiliary Basis Set <=

  Basis Set: (AUG-CC-PVDZ AUX)
    Blend: AUG-CC-PVDZ-JKFIT
    Number of shells: 432
    Number of basis functions: 1288
    Number of Cartesian functions: 1492
    Spherical Harmonics?: true
    Max angular momentum: 3

  Minimum eigenvalue in the overlap matrix is 9.4898698926E-06.
  Reciprocal condition number of the overlap matrix is 7.4017873853E-07.
    Using symmetric orthogonalization.

  ==> Pre-Iterations <==

  SCF Guess: Superposition of Atomic Densities via on-the-fly atomic UHF (no occupation information).

   -------------------------
    Irrep   Nso     Nmo    
   -------------------------
     A        348     348 
   -------------------------
    Total     348     348
   -------------------------

  ==> Iterations <==

                           Total Energy        Delta E     RMS |[F,P]|

   @DF-RHF iter SAD:  -524.65046251278943   -5.24650e+02   0.00000e+00 
   @DF-RHF iter   1:  -525.07881524914694   -4.28353e-01   1.58371e-03 DIIS
   @DF-RHF iter   2:  -525.25757610912899   -1.78761e-01   5.80770e-04 DIIS
   @DF-RHF iter   3:  -525.27724537382642   -1.96693e-02   1.81370e-04 DIIS
   @DF-RHF iter   4:  -525.27969488843644   -2.44951e-03   5.34007e-05 DIIS
   @DF-RHF iter   5:  -525.27987408970876   -1.79201e-04   1.06851e-05 DIIS
   @DF-RHF iter   6:  -525.27988719003054   -1.31003e-05   3.46854e-06 DIIS
   @DF-RHF iter   7:  -525.27988909475516   -1.90472e-06   9.05282e-07 DIIS
   @DF-RHF iter   8:  -525.27988924253327   -1.47778e-07   1.40268e-07 DIIS
   @DF-RHF iter   9:  -525.27988924650515   -3.97188e-09   2.68039e-08 DIIS
   @DF-RHF iter  10:  -525.27988924664544   -1.40290e-10   6.01690e-09 DIIS
   @DF-RHF iter  11:  -525.27988924664976   -4.32010e-12   3.46584e-09 DIIS
   @DF-RHF iter  12:  -525.27988924665226   -2.50111e-12   4.78977e-10 DIIS
   @DF-RHF iter  13:  -525.27988924665135    9.09495e-13   1.38381e-10 DIIS
   @DF-RHF iter  14:  -525.27988924665124    1.13687e-13   5.97405e-11 DIIS
  Energy and wave function converged.


  ==> Post-Iterations <==

    Orbital Energies [Eh]
    ---------------------

    Doubly Occupied:                                                      

       1A    -15.598042     2A    -15.598023     3A    -15.598020  
       4A    -15.598001     5A    -11.274209     6A    -11.274187  
       7A    -11.274164     8A    -11.274142     9A    -11.272945  
      10A    -11.272939    11A    -11.272923    12A    -11.272917  
      13A     -1.313316    14A     -1.313294    15A     -1.224145  
      16A     -1.224123    17A     -1.076773    18A     -1.076751  
      19A     -0.922632    20A     -0.922610    21A     -0.919252  
      22A     -0.919230    23A     -0.760607    24A     -0.760585  
      25A     -0.738372    26A     -0.738350    27A     -0.706184  
      28A     -0.706162    29A     -0.647657    30A     -0.647635  
      31A     -0.580681    32A     -0.580659    33A     -0.574339  
      34A     -0.574317    35A     -0.497082    36A     -0.497060  
      37A     -0.434257    38A     -0.434235    39A     -0.415825  
      40A     -0.415803    41A     -0.359894    42A     -0.359872  

    Virtual:                                                              

      43A      0.034526    44A      0.034549    45A      0.040766  
      46A      0.040788    47A      0.048411    48A      0.048434  
      49A      0.058616    50A      0.058640    51A      0.067145  
      52A      0.067166    53A      0.099450    54A      0.099472  
      55A      0.100977    56A      0.100999    57A      0.114235  
      58A      0.114255    59A      0.114984    60A      0.115005  
      61A      0.123803    62A      0.123826    63A      0.125354  
      64A      0.125375    65A      0.128687    66A      0.128711  
      67A      0.132921    68A      0.132943    69A      0.158227  
      70A      0.158250    71A      0.161115    72A      0.161136  
      73A      0.161352    74A      0.161376    75A      0.163942  
      76A      0.163965    77A      0.175205    78A      0.175229  
      79A      0.186949    80A      0.186971    81A      0.203941  
      82A      0.203962    83A      0.212570    84A      0.212592  
      85A      0.250550    86A      0.250571    87A      0.267786  
      88A      0.267808    89A      0.278087    90A      0.278109  
      91A      0.287844    92A      0.287865    93A      0.293236  
      94A      0.293258    95A      0.295776    96A      0.295799  
      97A      0.314860    98A      0.314883    99A      0.320488  
     100A      0.320510   101A      0.355456   102A      0.355479  
     103A      0.357939   104A      0.357960   105A      0.364691  
     106A      0.364713   107A      0.382611   108A      0.382634  
     109A      0.398921   110A      0.398943   111A      0.409924  
     112A      0.409946   113A      0.425481   114A      0.425504  
     115A      0.433956   116A      0.433978   117A      0.437240  
     118A      0.437263   119A      0.452120   120A      0.452143  
     121A      0.471513   122A      0.471535   123A      0.492169  
     124A      0.492191   125A      0.504891   126A      0.504913  
     127A      0.514945   128A      0.514967   129A      0.524576  
     130A      0.524598   131A      0.528700   132A      0.528721  
     133A      0.554607   134A      0.554629   135A      0.570565  
     136A      0.570587   137A      0.587565   138A      0.587587  
     139A      0.591537   140A      0.591558   141A      0.593829  
     142A      0.593851   143A      0.608958   144A      0.608980  
     145A      0.643546   146A      0.643569   147A      0.644349  
     148A      0.644372   149A      0.685166   150A      0.685188  
     151A      0.687789   152A      0.687811   153A      0.689961  
     154A      0.689983   155A      0.690372   156A      0.690394  
     157A      0.694857   158A      0.694879   159A      0.703858  
     160A      0.703880   161A      0.746587   162A      0.746609  
     163A      0.754847   164A      0.754869   165A      0.766995  
     166A      0.767017   167A      0.781437   168A      0.781459  
     169A      0.799844   170A      0.799866   171A      0.802740  
     172A      0.802762   173A      0.819047   174A      0.819068  
     175A      0.831102   176A      0.831123   177A      0.847542  
     178A      0.847565   179A      0.880574   180A      0.880596  
     181A      0.886439   182A      0.886462   183A      0.894714  
     184A      0.894735   185A      0.929302   186A      0.929324  
     187A      0.939497   188A      0.939518   189A      0.949336  
     190A      0.949358   191A      0.996682   192A      0.996704  
     193A      0.998937   194A      0.998960   195A      1.013045  
     196A      1.013068   197A      1.033400   198A      1.033422  
     199A      1.051225   200A      1.051246   201A      1.089411  
     202A      1.089433   203A      1.100475   204A      1.100498  
     205A      1.122229   206A      1.122251   207A      1.124075  
     208A      1.124097   209A      1.134392   210A      1.134414  
     211A      1.158770   212A      1.158792   213A      1.173595  
     214A      1.173617   215A      1.235446   216A      1.235468  
     217A      1.238834   218A      1.238856   219A      1.309704  
     220A      1.309726   221A      1.331178   222A      1.331200  
     223A      1.414312   224A      1.414334   225A      1.451557  
     226A      1.451579   227A      1.486167   228A      1.486189  
     229A      1.488105   230A      1.488127   231A      1.499241  
     232A      1.499263   233A      1.502876   234A      1.502898  
     235A      1.518281   236A      1.518304   237A      1.572716  
     238A      1.572738   239A      1.574223   240A      1.574244  
     241A      1.587866   242A      1.587888   243A      1.636012  
     244A      1.636034   245A      1.640534   246A      1.640556  
     247A      1.648249   248A      1.648271   249A      1.676582  
     250A      1.676604   251A      1.717022   252A      1.717043  
     253A      1.746628   254A      1.746650   255A      1.755134  
     256A      1.755156   257A      1.783792   258A      1.783814  
     259A      1.815758   260A      1.815779   261A      1.893353  
     262A      1.893375   263A      1.916167   264A      1.916189  
     265A      1.964859   266A      1.964881   267A      1.987705  
     268A      1.987727   269A      2.031232   270A      2.031254  
     271A      2.091579   272A      2.091600   273A      2.101058  
     274A      2.101080   275A      2.142983   276A      2.143005  
     277A      2.163385   278A      2.163408   279A      2.190518  
     280A      2.190540   281A      2.193331   282A      2.193353  
     283A      2.200410   284A      2.200432   285A      2.202440  
     286A      2.202462   287A      2.227656   288A      2.227678  
     289A      2.312791   290A      2.312813   291A      2.355259  
     292A      2.355281   293A      2.430987   294A      2.431009  
     295A      2.439007   296A      2.439029   297A      2.519409  
     298A      2.519431   299A      2.522425   300A      2.522447  
     301A      2.584797   302A      2.584819   303A      2.606296  
     304A      2.606318   305A      2.665254   306A      2.665276  
     307A      2.675439   308A      2.675461   309A      2.686426  
     310A      2.686447   311A      2.714015   312A      2.714037  
     313A      2.718621   314A      2.718643   315A      2.844045  
     316A      2.844067   317A      2.865791   318A      2.865813  
     319A      2.939226   320A      2.939248   321A      3.001885  
     322A      3.001907   323A      3.017902   324A      3.017924  
     325A      3.032217   326A      3.032239   327A      3.094167  
     328A      3.094189   329A      3.220346   330A      3.220368  
     331A      3.256010   332A      3.256032   333A      3.284910  
     334A      3.284932   335A      3.366170   336A      3.366192  
     337A      3.413397   338A      3.413419   339A      3.514950  
     340A      3.514972   341A      3.590685   342A      3.590707  
     343A      3.627799   344A      3.627821   345A      3.977266  
     346A      3.977288   347A      4.253515   348A      4.253537  

    Final Occupation by Irrep:
              A 
    DOCC [    42 ]

  @DF-RHF Final Energy:  -525.27988924665124

   => Energetics <=

    Nuclear Repulsion Energy =            467.3815616595271649
    One-Electron Energy =               -1635.4784777179479534
    Two-Electron Energy =                 642.8170268117696651
    Total Energy =                       -525.2798892466512370

Computation Completed


Properties will be evaluated at   0.000000,   0.000000,   0.000000 [a0]

Properties computed using the SCF density matrix

  Nuclear Dipole Moment: [e a0]
     X: -1000.0516      Y:  -149.8134      Z: -1297.5007

  Electronic Dipole Moment: [e a0]
     X:  1000.0517      Y:   149.8132      Z:  1297.5008

  Dipole Moment: [e a0]
     X:     0.0001      Y:    -0.0001      Z:     0.0001     Total:     0.0002

  Dipole Moment: [D]
     X:     0.0002      Y:    -0.0003      Z:     0.0002     Total:     0.0005


*** tstop() called on atl1-1-01-013-14-l.pace.gatech.edu at Mon Nov 29 16:10:59 2021
Module time:
	user time   =      25.83 seconds =       0.43 minutes
	system time =       0.99 seconds =       0.02 minutes
	total time  =         15 seconds =       0.25 minutes
Total time:
	user time   =      25.83 seconds =       0.43 minutes
	system time =       0.99 seconds =       0.02 minutes
	total time  =         15 seconds =       0.25 minutes

  //>>>>>>>>>>>>>>>>>>>>>>>>>>>>>>>>>>>//
  //            Monomer A HF           //
  //<<<<<<<<<<<<<<<<<<<<<<<<<<<<<<<<<<<//


*** tstart() called on atl1-1-01-013-14-l.pace.gatech.edu
*** at Mon Nov 29 16:10:59 2021

   => Loading Basis Set <=

    Name: AUG-CC-PVDZ
    Role: ORBITAL
    Keyword: BASIS
    atoms 1-2, 11-12  entry N          line   218 file /storage/home/hhive1/csargent30/data/miniconda3/envs/psi4/share/psi4/basis/aug-cc-pvdz.gbs 
    atoms 3-6, 13-16  entry H          line    40 file /storage/home/hhive1/csargent30/data/miniconda3/envs/psi4/share/psi4/basis/aug-cc-pvdz.gbs 
    atoms 7-10, 17-20 entry C          line   182 file /storage/home/hhive1/csargent30/data/miniconda3/envs/psi4/share/psi4/basis/aug-cc-pvdz.gbs 


         ---------------------------------------------------------
                                   SCF
               by Justin Turney, Rob Parrish, Andy Simmonett
                          and Daniel G. A. Smith
                              RHF Reference
                        2 Threads,   6675 MiB Core
         ---------------------------------------------------------

  ==> Geometry <==

    Molecular point group: c1
    Full point group: C1

    Geometry (in Bohr), charge = 0, multiplicity = 1:

       Center              X                  Y                   Z               Mass       
    ------------   -----------------  -----------------  -----------------  -----------------
         N           -1.330847580000     0.980326580000     0.426270370000    14.003074004430
         N            3.953773330000     0.980326580000     0.426270370000    14.003074004430
         H            3.567136740000     4.352185690000    -0.942309730000     1.007825032230
         H           -0.944210980000     4.352185690000    -0.942309730000     1.007825032230
         H           -0.944210980000    -2.391532530000     1.794850470000     1.007825032230
         H            3.567136740000    -2.391532530000     1.794850470000     1.007825032230
         C            2.622925760000     2.940979740000    -0.426270370000    12.000000000000
         C            0.000000000000     2.940979740000    -0.426270370000    12.000000000000
         C            0.000000000000    -0.980326580000     1.278811120000    12.000000000000
         C            2.622925760000    -0.980326580000     1.278811120000    12.000000000000
      Gh(N)         -27.764525590000    -4.547311310000   -31.319144320000    14.003074004430
      Gh(N)         -22.479904680000    -4.547311310000   -31.319144320000    14.003074004430
      Gh(H)         -27.377888990000    -7.919170420000   -32.687724420000     1.007825032230
      Gh(H)         -27.377888990000    -1.175452200000   -29.950564220000     1.007825032230
      Gh(H)         -22.866541280000    -7.919170420000   -32.687724420000     1.007825032230
      Gh(H)         -22.866541280000    -1.175452200000   -29.950564220000     1.007825032230
      Gh(C)         -26.433678020000    -6.507964470000   -32.171685070000    12.000000000000
      Gh(C)         -26.433678020000    -2.586658150000   -30.466603570000    12.000000000000
      Gh(C)         -23.810752260000    -6.507964470000   -32.171685070000    12.000000000000
      Gh(C)         -23.810752260000    -2.586658150000   -30.466603570000    12.000000000000

  Running in c1 symmetry.

  Rotational constants: A =      0.06290  B =      0.00046  C =      0.00046 [cm^-1]
  Rotational constants: A =   1885.72223  B =     13.72150  C =     13.71246 [MHz]
  Nuclear repulsion =  212.551731110485349

  Charge       = 0
  Multiplicity = 1
  Electrons    = 42
  Nalpha       = 21
  Nbeta        = 21

  ==> Algorithm <==

  SCF Algorithm Type is DF.
  DIIS enabled.
  MOM disabled.
  Fractional occupation disabled.
  Guess Type is SAD.
  Energy threshold   = 1.00e-10
  Density threshold  = 1.00e-10
  Integral threshold = 1.00e-12

  ==> Primary Basis <==

  Basis Set: AUG-CC-PVDZ
    Blend: AUG-CC-PVDZ
    Number of shells: 148
    Number of basis functions: 348
    Number of Cartesian functions: 372
    Spherical Harmonics?: true
    Max angular momentum: 2

   => Loading Basis Set <=

    Name: (AUG-CC-PVDZ AUX)
    Role: JKFIT
    Keyword: DF_BASIS_SCF
    atoms 1-2, 11-12  entry N          line   212 file /storage/home/hhive1/csargent30/data/miniconda3/envs/psi4/share/psi4/basis/aug-cc-pvdz-jkfit.gbs 
    atoms 3-6, 13-16  entry H          line    70 file /storage/home/hhive1/csargent30/data/miniconda3/envs/psi4/share/psi4/basis/aug-cc-pvdz-jkfit.gbs 
    atoms 7-10, 17-20 entry C          line   154 file /storage/home/hhive1/csargent30/data/miniconda3/envs/psi4/share/psi4/basis/aug-cc-pvdz-jkfit.gbs 

  ==> Integral Setup <==

  ==> DiskDFJK: Density-Fitted J/K Matrices <==

    J tasked:                  Yes
    K tasked:                  Yes
    wK tasked:                  No
    OpenMP threads:              2
    Integrals threads:           2
    Memory [MiB]:             5006
    Algorithm:                Core
    Integral Cache:           LOAD
    Schwarz Cutoff:          1E-12
    Fitting Condition:       1E-10

   => Auxiliary Basis Set <=

  Basis Set: (AUG-CC-PVDZ AUX)
    Blend: AUG-CC-PVDZ-JKFIT
    Number of shells: 432
    Number of basis functions: 1288
    Number of Cartesian functions: 1492
    Spherical Harmonics?: true
    Max angular momentum: 3

  Minimum eigenvalue in the overlap matrix is 9.4898698926E-06.
  Reciprocal condition number of the overlap matrix is 7.4017873853E-07.
    Using symmetric orthogonalization.

  ==> Pre-Iterations <==

  SCF Guess: Superposition of Atomic Densities via on-the-fly atomic UHF (no occupation information).

   -------------------------
    Irrep   Nso     Nmo    
   -------------------------
     A        348     348 
   -------------------------
    Total     348     348
   -------------------------

  ==> Iterations <==

                           Total Energy        Delta E     RMS |[F,P]|

   @DF-RHF iter SAD:  -262.32523125816465   -2.62325e+02   0.00000e+00 
   @DF-RHF iter   1:  -262.53940798318126   -2.14177e-01   1.11985e-03 DIIS
   @DF-RHF iter   2:  -262.62878837550176   -8.93804e-02   4.10664e-04 DIIS
   @DF-RHF iter   3:  -262.63862292007866   -9.83454e-03   1.28248e-04 DIIS
   @DF-RHF iter   4:  -262.63984767335552   -1.22475e-03   3.77599e-05 DIIS
   @DF-RHF iter   5:  -262.63993727381722   -8.96005e-05   7.55558e-06 DIIS
   @DF-RHF iter   6:  -262.63994382407691   -6.55026e-06   2.45264e-06 DIIS
   @DF-RHF iter   7:  -262.63994477645031   -9.52373e-07   6.40130e-07 DIIS
   @DF-RHF iter   8:  -262.63994485033913   -7.38888e-08   9.91693e-08 DIIS
   @DF-RHF iter   9:  -262.63994485232456   -1.98543e-09   1.88228e-08 DIIS
   @DF-RHF iter  10:  -262.63994485239550   -7.09406e-11   3.19151e-09 DIIS
   @DF-RHF iter  11:  -262.63994485239738   -1.87583e-12   5.22317e-10 DIIS
   @DF-RHF iter  12:  -262.63994485239732    5.68434e-14   9.54328e-11 DIIS
  Energy and wave function converged.


  ==> Post-Iterations <==

    Orbital Energies [Eh]
    ---------------------

    Doubly Occupied:                                                      

       1A    -15.598072     2A    -15.598053     3A    -11.274239  
       4A    -11.274194     5A    -11.272975     6A    -11.272969  
       7A     -1.313347     8A     -1.224176     9A     -1.076803  
      10A     -0.922662    11A     -0.919282    12A     -0.760637  
      13A     -0.738402    14A     -0.706214    15A     -0.647687  
      16A     -0.580711    17A     -0.574369    18A     -0.497113  
      19A     -0.434288    20A     -0.415855    21A     -0.359924  

    Virtual:                                                              

      22A      0.022412    23A      0.034497    24A      0.039483  
      25A      0.040739    26A      0.041156    27A      0.048384  
      28A      0.058591    29A      0.058824    30A      0.067113  
      31A      0.079661    32A      0.085024    33A      0.099419  
      34A      0.100948    35A      0.103968    36A      0.108492  
      37A      0.108830    38A      0.114201    39A      0.114951  
      40A      0.122477    41A      0.123776    42A      0.125322  
      43A      0.125563    44A      0.128661    45A      0.130923  
      46A      0.132889    47A      0.134124    48A      0.152079  
      49A      0.153004    50A      0.158199    51A      0.159322  
      52A      0.161084    53A      0.161326    54A      0.163914  
      55A      0.175179    56A      0.176719    57A      0.186918  
      58A      0.197777    59A      0.203881    60A      0.203908  
      61A      0.206641    62A      0.212538    63A      0.222359  
      64A      0.233588    65A      0.239413    66A      0.250517  
      67A      0.255198    68A      0.267756    69A      0.270754  
      70A      0.278056    71A      0.287812    72A      0.293207  
      73A      0.295749    74A      0.302299    75A      0.314832  
      76A      0.320457    77A      0.320614    78A      0.328133  
      79A      0.331278    80A      0.344094    81A      0.355428  
      82A      0.357908    83A      0.364661    84A      0.380474  
      85A      0.382583    86A      0.385612    87A      0.398891  
      88A      0.401248    89A      0.409895    90A      0.419246  
      91A      0.424926    92A      0.425453    93A      0.433925  
      94A      0.437212    95A      0.441908    96A      0.452092  
      97A      0.460632    98A      0.461080    99A      0.471483  
     100A      0.476061   101A      0.478794   102A      0.492140  
     103A      0.504862   104A      0.507797   105A      0.514914  
     106A      0.523740   107A      0.524547   108A      0.528668  
     109A      0.535708   110A      0.554577   111A      0.557819  
     112A      0.561489   113A      0.564470   114A      0.570535  
     115A      0.581879   116A      0.587535   117A      0.591506  
     118A      0.593799   119A      0.595984   120A      0.608929  
     121A      0.615117   122A      0.620135   123A      0.636341  
     124A      0.643517   125A      0.644321   126A      0.649331  
     127A      0.651466   128A      0.679388   129A      0.685136  
     130A      0.685290   131A      0.687758   132A      0.689932  
     133A      0.690342   134A      0.694828   135A      0.703829  
     136A      0.719864   137A      0.728368   138A      0.746558  
     139A      0.746764   140A      0.754817   141A      0.766965  
     142A      0.775657   143A      0.781406   144A      0.793607  
     145A      0.799815   146A      0.802710   147A      0.811069  
     148A      0.811953   149A      0.819016   150A      0.824727  
     151A      0.831071   152A      0.847513   153A      0.848038  
     154A      0.849160   155A      0.868581   156A      0.880544  
     157A      0.886410   158A      0.888125   159A      0.894682  
     160A      0.906080   161A      0.929088   162A      0.929272  
     163A      0.939466   164A      0.947667   165A      0.949307  
     166A      0.970756   167A      0.976910   168A      0.986611  
     169A      0.996652   170A      0.998908   171A      1.013015  
     172A      1.032394   173A      1.033370   174A      1.046905  
     175A      1.051194   176A      1.076240   177A      1.089381  
     178A      1.090253   179A      1.100445   180A      1.122199  
     181A      1.124044   182A      1.130637   183A      1.134362  
     184A      1.140240   185A      1.158740   186A      1.168565  
     187A      1.170652   188A      1.173565   189A      1.192183  
     190A      1.193216   191A      1.200449   192A      1.222292  
     193A      1.235416   194A      1.238804   195A      1.251004  
     196A      1.307532   197A      1.309674   198A      1.318237  
     199A      1.326388   200A      1.329587   201A      1.331148  
     202A      1.346783   203A      1.389190   204A      1.414282  
     205A      1.448364   206A      1.451526   207A      1.455435  
     208A      1.479109   209A      1.486137   210A      1.487180  
     211A      1.488075   212A      1.499211   213A      1.502846  
     214A      1.518252   215A      1.572686   216A      1.574192  
     217A      1.587836   218A      1.635982   219A      1.640505  
     220A      1.648219   221A      1.659217   222A      1.676552  
     223A      1.698043   224A      1.716991   225A      1.746597  
     226A      1.755104   227A      1.783762   228A      1.815727  
     229A      1.893323   230A      1.916137   231A      1.964829  
     232A      1.987674   233A      2.031202   234A      2.070204  
     235A      2.091548   236A      2.101028   237A      2.102743  
     238A      2.119421   239A      2.142953   240A      2.156654  
     241A      2.159167   242A      2.163355   243A      2.190488  
     244A      2.193301   245A      2.194838   246A      2.200380  
     247A      2.202410   248A      2.227626   249A      2.234753  
     250A      2.241181   251A      2.249638   252A      2.309992  
     253A      2.312761   254A      2.319525   255A      2.355229  
     256A      2.384783   257A      2.419187   258A      2.430957  
     259A      2.435390   260A      2.438143   261A      2.438977  
     262A      2.472654   263A      2.486702   264A      2.498298  
     265A      2.519379   266A      2.522395   267A      2.525045  
     268A      2.545973   269A      2.568305   270A      2.584766  
     271A      2.592350   272A      2.606266   273A      2.625950  
     274A      2.665224   275A      2.675409   276A      2.686395  
     277A      2.713985   278A      2.716876   279A      2.718591  
     280A      2.726630   281A      2.767913   282A      2.844014  
     283A      2.865761   284A      2.904014   285A      2.939196  
     286A      2.947204   287A      2.955729   288A      2.973319  
     289A      3.001855   290A      3.017872   291A      3.032186  
     292A      3.058309   293A      3.065208   294A      3.094137  
     295A      3.113847   296A      3.220316   297A      3.245708  
     298A      3.255980   299A      3.284880   300A      3.289660  
     301A      3.321940   302A      3.337720   303A      3.340465  
     304A      3.348638   305A      3.351361   306A      3.366140  
     307A      3.412609   308A      3.413367   309A      3.470764  
     310A      3.501965   311A      3.514920   312A      3.521373  
     313A      3.590655   314A      3.604447   315A      3.605655  
     316A      3.627769   317A      3.700495   318A      3.818935  
     319A      3.830698   320A      3.940979   321A      3.969106  
     322A      3.977236   323A      4.011413   324A      4.194768  
     325A      4.242260   326A      4.253485   327A      4.441999  
     328A      4.546840   329A      4.579287   330A      4.867650  
     331A      4.976154   332A      5.057863   333A      5.261722  
     334A      5.316550   335A      5.630208   336A      5.691334  
     337A      5.827158   338A      5.952643   339A      6.283839  
     340A      6.306900   341A      6.453777   342A      6.631211  
     343A     18.125728   344A     18.207990   345A     19.017585  
     346A     19.343011   347A     25.287072   348A     25.374792  

    Final Occupation by Irrep:
              A 
    DOCC [    21 ]

  @DF-RHF Final Energy:  -262.63994485239732

   => Energetics <=

    Nuclear Repulsion Energy =            212.5517311104853491
    One-Electron Energy =                -775.4594096434261701
    Two-Electron Energy =                 300.2677336805435289
    Total Energy =                       -262.6399448523973206

Computation Completed


Properties will be evaluated at   0.000000,   0.000000,   0.000000 [a0]

Properties computed using the SCF density matrix

  Nuclear Dipole Moment: [e a0]
     X:    55.0814      Y:    41.1737      Z:    17.9034

  Electronic Dipole Moment: [e a0]
     X:   -55.0814      Y:   -41.1737      Z:   -17.9034

  Dipole Moment: [e a0]
     X:    -0.0000      Y:     0.0000      Z:     0.0000     Total:     0.0000

  Dipole Moment: [D]
     X:    -0.0000      Y:     0.0000      Z:     0.0000     Total:     0.0000


*** tstop() called on atl1-1-01-013-14-l.pace.gatech.edu at Mon Nov 29 16:11:07 2021
Module time:
	user time   =      15.61 seconds =       0.26 minutes
	system time =       0.50 seconds =       0.01 minutes
	total time  =          8 seconds =       0.13 minutes
Total time:
	user time   =      41.45 seconds =       0.69 minutes
	system time =       1.49 seconds =       0.02 minutes
	total time  =         23 seconds =       0.38 minutes

  //>>>>>>>>>>>>>>>>>>>>>>>>>>>>>>>>>>>//
  //            Monomer B HF           //
  //<<<<<<<<<<<<<<<<<<<<<<<<<<<<<<<<<<<//


*** tstart() called on atl1-1-01-013-14-l.pace.gatech.edu
*** at Mon Nov 29 16:11:07 2021

   => Loading Basis Set <=

    Name: AUG-CC-PVDZ
    Role: ORBITAL
    Keyword: BASIS
    atoms 1-2, 11-12  entry N          line   218 file /storage/home/hhive1/csargent30/data/miniconda3/envs/psi4/share/psi4/basis/aug-cc-pvdz.gbs 
    atoms 3-6, 13-16  entry H          line    40 file /storage/home/hhive1/csargent30/data/miniconda3/envs/psi4/share/psi4/basis/aug-cc-pvdz.gbs 
    atoms 7-10, 17-20 entry C          line   182 file /storage/home/hhive1/csargent30/data/miniconda3/envs/psi4/share/psi4/basis/aug-cc-pvdz.gbs 


         ---------------------------------------------------------
                                   SCF
               by Justin Turney, Rob Parrish, Andy Simmonett
                          and Daniel G. A. Smith
                              RHF Reference
                        2 Threads,   6675 MiB Core
         ---------------------------------------------------------

  ==> Geometry <==

    Molecular point group: c1
    Full point group: C1

    Geometry (in Bohr), charge = 0, multiplicity = 1:

       Center              X                  Y                   Z               Mass       
    ------------   -----------------  -----------------  -----------------  -----------------
      Gh(N)          -1.330847580000     0.980326580000     0.426270370000    14.003074004430
      Gh(N)           3.953773330000     0.980326580000     0.426270370000    14.003074004430
      Gh(H)           3.567136740000     4.352185690000    -0.942309730000     1.007825032230
      Gh(H)          -0.944210980000     4.352185690000    -0.942309730000     1.007825032230
      Gh(H)          -0.944210980000    -2.391532530000     1.794850470000     1.007825032230
      Gh(H)           3.567136740000    -2.391532530000     1.794850470000     1.007825032230
      Gh(C)           2.622925760000     2.940979740000    -0.426270370000    12.000000000000
      Gh(C)           0.000000000000     2.940979740000    -0.426270370000    12.000000000000
      Gh(C)           0.000000000000    -0.980326580000     1.278811120000    12.000000000000
      Gh(C)           2.622925760000    -0.980326580000     1.278811120000    12.000000000000
         N          -27.764525590000    -4.547311310000   -31.319144320000    14.003074004430
         N          -22.479904680000    -4.547311310000   -31.319144320000    14.003074004430
         H          -27.377888990000    -7.919170420000   -32.687724420000     1.007825032230
         H          -27.377888990000    -1.175452200000   -29.950564220000     1.007825032230
         H          -22.866541280000    -7.919170420000   -32.687724420000     1.007825032230
         H          -22.866541280000    -1.175452200000   -29.950564220000     1.007825032230
         C          -26.433678020000    -6.507964470000   -32.171685070000    12.000000000000
         C          -26.433678020000    -2.586658150000   -30.466603570000    12.000000000000
         C          -23.810752260000    -6.507964470000   -32.171685070000    12.000000000000
         C          -23.810752260000    -2.586658150000   -30.466603570000    12.000000000000

  Running in c1 symmetry.

  Rotational constants: A =      0.06290  B =      0.00046  C =      0.00046 [cm^-1]
  Rotational constants: A =   1885.72223  B =     13.72150  C =     13.71246 [MHz]
  Nuclear repulsion =  212.551731074928114

  Charge       = 0
  Multiplicity = 1
  Electrons    = 42
  Nalpha       = 21
  Nbeta        = 21

  ==> Algorithm <==

  SCF Algorithm Type is DF.
  DIIS enabled.
  MOM disabled.
  Fractional occupation disabled.
  Guess Type is SAD.
  Energy threshold   = 1.00e-10
  Density threshold  = 1.00e-10
  Integral threshold = 1.00e-12

  ==> Primary Basis <==

  Basis Set: AUG-CC-PVDZ
    Blend: AUG-CC-PVDZ
    Number of shells: 148
    Number of basis functions: 348
    Number of Cartesian functions: 372
    Spherical Harmonics?: true
    Max angular momentum: 2

   => Loading Basis Set <=

    Name: (AUG-CC-PVDZ AUX)
    Role: JKFIT
    Keyword: DF_BASIS_SCF
    atoms 1-2, 11-12  entry N          line   212 file /storage/home/hhive1/csargent30/data/miniconda3/envs/psi4/share/psi4/basis/aug-cc-pvdz-jkfit.gbs 
    atoms 3-6, 13-16  entry H          line    70 file /storage/home/hhive1/csargent30/data/miniconda3/envs/psi4/share/psi4/basis/aug-cc-pvdz-jkfit.gbs 
    atoms 7-10, 17-20 entry C          line   154 file /storage/home/hhive1/csargent30/data/miniconda3/envs/psi4/share/psi4/basis/aug-cc-pvdz-jkfit.gbs 

  ==> Integral Setup <==

  ==> DiskDFJK: Density-Fitted J/K Matrices <==

    J tasked:                  Yes
    K tasked:                  Yes
    wK tasked:                  No
    OpenMP threads:              2
    Integrals threads:           2
    Memory [MiB]:             5006
    Algorithm:                Core
    Integral Cache:           LOAD
    Schwarz Cutoff:          1E-12
    Fitting Condition:       1E-10

   => Auxiliary Basis Set <=

  Basis Set: (AUG-CC-PVDZ AUX)
    Blend: AUG-CC-PVDZ-JKFIT
    Number of shells: 432
    Number of basis functions: 1288
    Number of Cartesian functions: 1492
    Spherical Harmonics?: true
    Max angular momentum: 3

  Minimum eigenvalue in the overlap matrix is 9.4898698926E-06.
  Reciprocal condition number of the overlap matrix is 7.4017873853E-07.
    Using symmetric orthogonalization.

  ==> Pre-Iterations <==

  SCF Guess: Superposition of Atomic Densities via on-the-fly atomic UHF (no occupation information).

   -------------------------
    Irrep   Nso     Nmo    
   -------------------------
     A        348     348 
   -------------------------
    Total     348     348
   -------------------------

  ==> Iterations <==

                           Total Energy        Delta E     RMS |[F,P]|

   @DF-RHF iter SAD:  -262.32523125367936   -2.62325e+02   0.00000e+00 
   @DF-RHF iter   1:  -262.53940798170783   -2.14177e-01   1.11985e-03 DIIS
   @DF-RHF iter   2:  -262.62878837390696   -8.93804e-02   4.10664e-04 DIIS
   @DF-RHF iter   3:  -262.63862291838882   -9.83454e-03   1.28248e-04 DIIS
   @DF-RHF iter   4:  -262.63984767166181   -1.22475e-03   3.77599e-05 DIIS
   @DF-RHF iter   5:  -262.63993727212301   -8.96005e-05   7.55558e-06 DIIS
   @DF-RHF iter   6:  -262.63994382238297   -6.55026e-06   2.45264e-06 DIIS
   @DF-RHF iter   7:  -262.63994477475677   -9.52374e-07   6.40130e-07 DIIS
   @DF-RHF iter   8:  -262.63994484864486   -7.38881e-08   9.91693e-08 DIIS
   @DF-RHF iter   9:  -262.63994485063097   -1.98611e-09   1.88228e-08 DIIS
   @DF-RHF iter  10:  -262.63994485070157   -7.05995e-11   3.19151e-09 DIIS
   @DF-RHF iter  11:  -262.63994485070327   -1.70530e-12   5.22317e-10 DIIS
   @DF-RHF iter  12:  -262.63994485070361   -3.41061e-13   9.54327e-11 DIIS
  Energy and wave function converged.


  ==> Post-Iterations <==

    Orbital Energies [Eh]
    ---------------------

    Doubly Occupied:                                                      

       1A    -15.598072     2A    -15.598053     3A    -11.274239  
       4A    -11.274194     5A    -11.272975     6A    -11.272969  
       7A     -1.313347     8A     -1.224176     9A     -1.076803  
      10A     -0.922662    11A     -0.919282    12A     -0.760637  
      13A     -0.738402    14A     -0.706214    15A     -0.647687  
      16A     -0.580711    17A     -0.574369    18A     -0.497113  
      19A     -0.434288    20A     -0.415855    21A     -0.359924  

    Virtual:                                                              

      22A      0.022390    23A      0.034497    24A      0.039461  
      25A      0.040739    26A      0.041133    27A      0.048384  
      28A      0.058591    29A      0.058800    30A      0.067113  
      31A      0.079641    32A      0.085001    33A      0.099419  
      34A      0.100948    35A      0.103945    36A      0.108471  
      37A      0.108807    38A      0.114201    39A      0.114951  
      40A      0.122456    41A      0.123776    42A      0.125322  
      43A      0.125541    44A      0.128661    45A      0.130903  
      46A      0.132889    47A      0.134101    48A      0.152055  
      49A      0.152981    50A      0.158199    51A      0.159300  
      52A      0.161084    53A      0.161326    54A      0.163914  
      55A      0.175179    56A      0.176695    57A      0.186918  
      58A      0.197755    59A      0.203860    60A      0.203908  
      61A      0.206619    62A      0.212538    63A      0.222337  
      64A      0.233566    65A      0.239390    66A      0.250517  
      67A      0.255176    68A      0.267756    69A      0.270731  
      70A      0.278057    71A      0.287812    72A      0.293207  
      73A      0.295749    74A      0.302277    75A      0.314832  
      76A      0.320457    77A      0.320591    78A      0.328111  
      79A      0.331257    80A      0.344071    81A      0.355428  
      82A      0.357908    83A      0.364661    84A      0.380451  
      85A      0.382583    86A      0.385591    87A      0.398891  
      88A      0.401225    89A      0.409895    90A      0.419224  
      91A      0.424905    92A      0.425453    93A      0.433925  
      94A      0.437212    95A      0.441886    96A      0.452092  
      97A      0.460610    98A      0.461058    99A      0.471483  
     100A      0.476039   101A      0.478772   102A      0.492140  
     103A      0.504862   104A      0.507774   105A      0.514914  
     106A      0.523718   107A      0.524547   108A      0.528668  
     109A      0.535686   110A      0.554577   111A      0.557797  
     112A      0.561468   113A      0.564448   114A      0.570535  
     115A      0.581856   116A      0.587535   117A      0.591506  
     118A      0.593799   119A      0.595961   120A      0.608929  
     121A      0.615095   122A      0.620114   123A      0.636319  
     124A      0.643517   125A      0.644321   126A      0.649309  
     127A      0.651444   128A      0.679366   129A      0.685136  
     130A      0.685267   131A      0.687758   132A      0.689932  
     133A      0.690342   134A      0.694828   135A      0.703829  
     136A      0.719842   137A      0.728347   138A      0.746558  
     139A      0.746743   140A      0.754817   141A      0.766965  
     142A      0.775636   143A      0.781406   144A      0.793584  
     145A      0.799815   146A      0.802710   147A      0.811047  
     148A      0.811931   149A      0.819016   150A      0.824704  
     151A      0.831071   152A      0.847513   153A      0.848016  
     154A      0.849137   155A      0.868559   156A      0.880544  
     157A      0.886410   158A      0.888103   159A      0.894682  
     160A      0.906058   161A      0.929065   162A      0.929272  
     163A      0.939466   164A      0.947645   165A      0.949307  
     166A      0.970734   167A      0.976888   168A      0.986589  
     169A      0.996652   170A      0.998908   171A      1.013015  
     172A      1.032372   173A      1.033370   174A      1.046884  
     175A      1.051194   176A      1.076218   177A      1.089381  
     178A      1.090231   179A      1.100445   180A      1.122199  
     181A      1.124044   182A      1.130615   183A      1.134362  
     184A      1.140219   185A      1.158740   186A      1.168543  
     187A      1.170630   188A      1.173565   189A      1.192161  
     190A      1.193194   191A      1.200427   192A      1.222270  
     193A      1.235416   194A      1.238804   195A      1.250982  
     196A      1.307511   197A      1.309674   198A      1.318216  
     199A      1.326366   200A      1.329565   201A      1.331148  
     202A      1.346761   203A      1.389168   204A      1.414282  
     205A      1.448342   206A      1.451526   207A      1.455413  
     208A      1.479087   209A      1.486137   210A      1.487159  
     211A      1.488075   212A      1.499211   213A      1.502846  
     214A      1.518252   215A      1.572686   216A      1.574192  
     217A      1.587836   218A      1.635982   219A      1.640505  
     220A      1.648219   221A      1.659195   222A      1.676552  
     223A      1.698021   224A      1.716991   225A      1.746597  
     226A      1.755104   227A      1.783762   228A      1.815727  
     229A      1.893323   230A      1.916137   231A      1.964829  
     232A      1.987674   233A      2.031202   234A      2.070183  
     235A      2.091548   236A      2.101028   237A      2.102721  
     238A      2.119400   239A      2.142953   240A      2.156632  
     241A      2.159145   242A      2.163355   243A      2.190488  
     244A      2.193301   245A      2.194816   246A      2.200380  
     247A      2.202410   248A      2.227626   249A      2.234731  
     250A      2.241159   251A      2.249616   252A      2.309970  
     253A      2.312761   254A      2.319504   255A      2.355229  
     256A      2.384761   257A      2.419165   258A      2.430957  
     259A      2.435368   260A      2.438121   261A      2.438977  
     262A      2.472633   263A      2.486680   264A      2.498276  
     265A      2.519379   266A      2.522395   267A      2.525023  
     268A      2.545951   269A      2.568283   270A      2.584766  
     271A      2.592328   272A      2.606266   273A      2.625928  
     274A      2.665224   275A      2.675409   276A      2.686395  
     277A      2.713985   278A      2.716854   279A      2.718591  
     280A      2.726608   281A      2.767891   282A      2.844014  
     283A      2.865761   284A      2.903992   285A      2.939196  
     286A      2.947182   287A      2.955707   288A      2.973297  
     289A      3.001855   290A      3.017872   291A      3.032186  
     292A      3.058287   293A      3.065186   294A      3.094137  
     295A      3.113825   296A      3.220316   297A      3.245686  
     298A      3.255980   299A      3.284880   300A      3.289638  
     301A      3.321918   302A      3.337698   303A      3.340444  
     304A      3.348616   305A      3.351339   306A      3.366140  
     307A      3.412587   308A      3.413367   309A      3.470742  
     310A      3.501943   311A      3.514920   312A      3.521351  
     313A      3.590655   314A      3.604426   315A      3.605633  
     316A      3.627769   317A      3.700473   318A      3.818913  
     319A      3.830676   320A      3.940958   321A      3.969084  
     322A      3.977236   323A      4.011391   324A      4.194746  
     325A      4.242239   326A      4.253485   327A      4.441977  
     328A      4.546818   329A      4.579266   330A      4.867628  
     331A      4.976132   332A      5.057841   333A      5.261700  
     334A      5.316528   335A      5.630186   336A      5.691313  
     337A      5.827137   338A      5.952621   339A      6.283817  
     340A      6.306878   341A      6.453755   342A      6.631189  
     343A     18.125706   344A     18.207968   345A     19.017564  
     346A     19.342989   347A     25.287050   348A     25.374770  

    Final Occupation by Irrep:
              A 
    DOCC [    21 ]

  @DF-RHF Final Energy:  -262.63994485070361

   => Energetics <=

    Nuclear Repulsion Energy =            212.5517310749281137
    One-Electron Energy =                -775.4594095639330362
    Two-Electron Energy =                 300.2677336383012516
    Total Energy =                       -262.6399448507036141

Computation Completed


Properties will be evaluated at   0.000000,   0.000000,   0.000000 [a0]

Properties computed using the SCF density matrix

  Nuclear Dipole Moment: [e a0]
     X: -1055.1330      Y:  -190.9871      Z: -1315.4041

  Electronic Dipole Moment: [e a0]
     X:  1055.1330      Y:   190.9871      Z:  1315.4041

  Dipole Moment: [e a0]
     X:     0.0000      Y:    -0.0000      Z:    -0.0000     Total:     0.0000

  Dipole Moment: [D]
     X:     0.0000      Y:    -0.0000      Z:    -0.0000     Total:     0.0000


*** tstop() called on atl1-1-01-013-14-l.pace.gatech.edu at Mon Nov 29 16:11:16 2021
Module time:
	user time   =      15.76 seconds =       0.26 minutes
	system time =       0.49 seconds =       0.01 minutes
	total time  =          9 seconds =       0.15 minutes
Total time:
	user time   =      57.22 seconds =       0.95 minutes
	system time =       1.98 seconds =       0.03 minutes
	total time  =         32 seconds =       0.53 minutes
  Constructing Basis Sets for SAPT...

   => Loading Basis Set <=

    Name: (AUG-CC-PVDZ AUX)
    Role: RIFIT
    Keyword: DF_BASIS_SAPT
    atoms 1-2, 11-12  entry N          line   158 file /storage/home/hhive1/csargent30/data/miniconda3/envs/psi4/share/psi4/basis/aug-cc-pvdz-ri.gbs 
    atoms 3-6, 13-16  entry H          line    30 file /storage/home/hhive1/csargent30/data/miniconda3/envs/psi4/share/psi4/basis/aug-cc-pvdz-ri.gbs 
    atoms 7-10, 17-20 entry C          line   112 file /storage/home/hhive1/csargent30/data/miniconda3/envs/psi4/share/psi4/basis/aug-cc-pvdz-ri.gbs 


  //>>>>>>>>>>>>>>>>>>>>>>>>>>>>>>>>>>>//
  //               SAPT0               //
  //<<<<<<<<<<<<<<<<<<<<<<<<<<<<<<<<<<<//


*** tstart() called on atl1-1-01-013-14-l.pace.gatech.edu
*** at Mon Nov 29 16:11:16 2021

        SAPT0  
    Ed Hohenstein
     6 June 2009

      Orbital Information
  --------------------------
    NSO        =       348
    NMO        =       348
    NRI        =      1048
    NOCC A     =        21
    NOCC B     =        21
    FOCC A     =         6
    FOCC B     =         6
    NVIR A     =       327
    NVIR B     =       327

    Elst10,r            =     0.000000447596 [Eh]
    Exch10              =     0.000000000000 [Eh]
    Exch10 (S^2)        =     0.000000000000 [Eh]

    Iter     Energy [mEh]          dE [mEh]         Residual      Time [s]
       1      -0.00000043       0.000000427       0.006516369             0
       2      -0.00000038      -0.000000048       0.001413149             0
       3      -0.00000040       0.000000021       0.000732095             1
       4      -0.00000041       0.000000011       0.000166890             1
       5      -0.00000041      -0.000000001       0.000118462             2
       6      -0.00000041      -0.000000000       0.000042803             2
       7      -0.00000041       0.000000000       0.000011385             2
       8      -0.00000041       0.000000000       0.000003581             3
       9      -0.00000041      -0.000000000       0.000001084             3
      10      -0.00000041      -0.000000000       0.000000309             3

    CHF Iterations converged


    Iter     Energy [mEh]          dE [mEh]         Residual      Time [s]
       1      -0.00000043       0.000000427       0.006591158             1
       2      -0.00000038      -0.000000051       0.001382751             1
       3      -0.00000040       0.000000021       0.000752919             2
       4      -0.00000041       0.000000012       0.000176445             2
       5      -0.00000041      -0.000000002       0.000125899             2
       6      -0.00000041      -0.000000001       0.000046039             3
       7      -0.00000041       0.000000000       0.000011424             3
       8      -0.00000041       0.000000000       0.000003055             3
       9      -0.00000041      -0.000000000       0.000001031             4
      10      -0.00000041      -0.000000000       0.000000298             4

    CHF Iterations converged

    Ind20,r (A<-B)      =    -0.000000000410 [Eh]
    Ind20,r (B<-A)      =    -0.000000000406 [Eh]
    Ind20,r             =    -0.000000000816 [Eh]
    Exch-Ind20,r (A<-B) =     0.000000000000 [Eh]
    Exch-Ind20,r (B<-A) =     0.000000000000 [Eh]
    Exch-Ind20,r        =     0.000000000000 [Eh]
    Disp20              =    -0.000000302316 [Eh]
    Disp20 (SS)         =    -0.000000151158 [Eh]
    Disp20 (OS)         =    -0.000000151158 [Eh]
    Exch-Disp20         =     0.000000000000 [Eh]
    Exch-Disp20 (SS)    =     0.000000000000 [Eh]
    Exch-Disp20 (OS)    =     0.000000000000 [Eh]

    SAPT Results 
  --------------------------------------------------------------------------------------------------------
    Electrostatics                  0.00044760 [mEh]       0.00028087 [kcal/mol]       0.00117516 [kJ/mol]
      Elst10,r                      0.00044760 [mEh]       0.00028087 [kcal/mol]       0.00117516 [kJ/mol]

    Exchange                        0.00000000 [mEh]       0.00000000 [kcal/mol]       0.00000000 [kJ/mol]
      Exch10                        0.00000000 [mEh]       0.00000000 [kcal/mol]       0.00000000 [kJ/mol]
      Exch10(S^2)                   0.00000000 [mEh]       0.00000000 [kcal/mol]       0.00000000 [kJ/mol]

    Induction                       0.00000885 [mEh]       0.00000556 [kcal/mol]       0.00002325 [kJ/mol]
      Ind20,r                      -0.00000082 [mEh]      -0.00000051 [kcal/mol]      -0.00000214 [kJ/mol]
      Exch-Ind20,r                  0.00000000 [mEh]       0.00000000 [kcal/mol]       0.00000000 [kJ/mol]
      delta HF,r (2)                0.00000967 [mEh]       0.00000607 [kcal/mol]       0.00002539 [kJ/mol]

    Dispersion                     -0.00030232 [mEh]      -0.00018971 [kcal/mol]      -0.00079373 [kJ/mol]
      Disp20                       -0.00030232 [mEh]      -0.00018971 [kcal/mol]      -0.00079373 [kJ/mol]
      Exch-Disp20                   0.00000000 [mEh]       0.00000000 [kcal/mol]       0.00000000 [kJ/mol]
      Disp20 (SS)                  -0.00015116 [mEh]      -0.00009485 [kcal/mol]      -0.00039687 [kJ/mol]
      Disp20 (OS)                  -0.00015116 [mEh]      -0.00009485 [kcal/mol]      -0.00039687 [kJ/mol]
      Exch-Disp20 (SS)              0.00000000 [mEh]       0.00000000 [kcal/mol]       0.00000000 [kJ/mol]
      Exch-Disp20 (OS)              0.00000000 [mEh]       0.00000000 [kcal/mol]       0.00000000 [kJ/mol]

  Total HF                          0.00045645 [mEh]       0.00028643 [kcal/mol]       0.00119841 [kJ/mol]
  Total SAPT0                       0.00015413 [mEh]       0.00009672 [kcal/mol]       0.00040468 [kJ/mol]

  Special recipe for scaled SAPT0 (see Manual):
    Electrostatics sSAPT0           0.00044760 [mEh]       0.00028087 [kcal/mol]       0.00117516 [kJ/mol]
    Exchange sSAPT0                 0.00000000 [mEh]       0.00000000 [kcal/mol]       0.00000000 [kJ/mol]
    Induction sSAPT0                0.00000885 [mEh]       0.00000556 [kcal/mol]       0.00002325 [kJ/mol]
    Dispersion sSAPT0              -0.00030232 [mEh]      -0.00018971 [kcal/mol]      -0.00079373 [kJ/mol]
  Total sSAPT0                      0.00015413 [mEh]       0.00009672 [kcal/mol]       0.00040468 [kJ/mol]
  --------------------------------------------------------------------------------------------------------

*** tstop() called on atl1-1-01-013-14-l.pace.gatech.edu at Mon Nov 29 16:12:01 2021
Module time:
	user time   =      38.19 seconds =       0.64 minutes
	system time =       8.70 seconds =       0.14 minutes
	total time  =         45 seconds =       0.75 minutes
Total time:
	user time   =      95.69 seconds =       1.59 minutes
	system time =      10.69 seconds =       0.18 minutes
	total time  =         77 seconds =       1.28 minutes


Warning! sapt0 does not have an associated derived wavefunction.The returned wavefunction is the dimer SCF wavefunction.


    Psi4 stopped on: Monday, 29 November 2021 04:12PM
    Psi4 wall time for execution: 0:01:16.72

*** Psi4 exiting successfully. Buy a developer a beer!
