
    -----------------------------------------------------------------------
          Psi4: An Open-Source Ab Initio Electronic Structure Package
                               Psi4 1.4.1 release

                         Git: Rev {HEAD} cd00f19


    D. G. A. Smith, L. A. Burns, A. C. Simmonett, R. M. Parrish,
    M. C. Schieber, R. Galvelis, P. Kraus, H. Kruse, R. Di Remigio,
    A. Alenaizan, A. M. James, S. Lehtola, J. P. Misiewicz, M. Scheurer,
    R. A. Shaw, J. B. Schriber, Y. Xie, Z. L. Glick, D. A. Sirianni,
    J. S. O'Brien, J. M. Waldrop, A. Kumar, E. G. Hohenstein,
    B. P. Pritchard, B. R. Brooks, H. F. Schaefer III, A. Yu. Sokolov,
    K. Patkowski, A. E. DePrince III, U. Bozkaya, R. A. King,
    F. A. Evangelista, J. M. Turney, T. D. Crawford, C. D. Sherrill,
    J. Chem. Phys. 152(18) 184108 (2020). https://doi.org/10.1063/5.0006002

                            Additional Code Authors
    E. T. Seidl, C. L. Janssen, E. F. Valeev, M. L. Leininger,
    J. F. Gonthier, R. M. Richard, H. R. McAlexander, M. Saitow, X. Wang,
    P. Verma, and M. H. Lechner

             Previous Authors, Complete List of Code Contributors,
                       and Citations for Specific Modules
    https://github.com/psi4/psi4/blob/master/codemeta.json
    https://github.com/psi4/psi4/graphs/contributors
    http://psicode.org/psi4manual/master/introduction.html#citing-psifour

    -----------------------------------------------------------------------


    Psi4 started on: Monday, 29 November 2021 04:10PM

    Process ID: 430058
    Host:       atl1-1-01-013-14-l.pace.gatech.edu
    PSIDATADIR: /storage/home/hhive1/csargent30/data/miniconda3/envs/psi4/share/psi4
    Memory:     500.0 MiB
    Threads:    2

  ==> Input File <==

--------------------------------------------------------------------------
# PSI4 file produced by CrystaLattE

# Generated from:               pyrazine.xyz
# Psithon input for N-mer:      2mer-0+404
# Number of atoms per monomer:  [10, 10]
# Number of replicas:           8
# COM priority:                 1.542746549035e-05
# Minimum COM separations:      21.257
# Separation priority:          2.017007602913e-05
# Minimum monomer separations:  19.440
# Cutoff priority:              5.490476625805e-07
# Nuclear repulsion energy:     468.8743945832206

memory 7 GB

molecule Dimer_0_404 {
  N           -1.33084758       0.98032658       0.42627037
  N            3.95377333       0.98032658       0.42627037
  H            3.56713674       4.35218569      -0.94230973
  H           -0.94421098       4.35218569      -0.94230973
  H           -0.94421098      -2.39153253       1.79485047
  H            3.56713674      -2.39153253       1.79485047
  C            2.62292576       2.94097974      -0.42627037
  C            0.00000000       2.94097974      -0.42627037
  C            0.00000000      -0.98032658       1.27881112
  C            2.62292576      -0.98032658       1.27881112
--
  N          -10.14207358      -4.54731131     -38.37368092
  N           -4.85745267      -4.54731131     -38.37368092
  H           -9.75543698      -7.91917042     -39.74226102
  H           -9.75543698      -1.17545220     -37.00510082
  H           -5.24408927      -7.91917042     -39.74226102
  H           -5.24408927      -1.17545220     -37.00510082
  C           -8.81122601      -6.50796447     -39.22622167
  C           -8.81122601      -2.58665815     -37.52114017
  C           -6.18830025      -6.50796447     -39.22622167
  C           -6.18830025      -2.58665815     -37.52114017
units = au
no_com
no_reorient
}

set {
  e_convergence 10
  d_convergence 10
  scf_type df
  mp2_type df
  cc_type df
  freeze_core true
}

energy('sapt0/aug-cc-pvdz')

--------------------------------------------------------------------------

  Memory set to   6.519 GiB by Python driver.

Scratch directory: /tmp/

Scratch directory: /tmp/

  //>>>>>>>>>>>>>>>>>>>>>>>>>>>>>>>>>>>//
  //              Dimer HF             //
  //<<<<<<<<<<<<<<<<<<<<<<<<<<<<<<<<<<<//


*** tstart() called on atl1-1-01-013-14-l.pace.gatech.edu
*** at Mon Nov 29 16:10:44 2021

   => Loading Basis Set <=

    Name: AUG-CC-PVDZ
    Role: ORBITAL
    Keyword: BASIS
    atoms 1-2, 11-12  entry N          line   218 file /storage/home/hhive1/csargent30/data/miniconda3/envs/psi4/share/psi4/basis/aug-cc-pvdz.gbs
    atoms 3-6, 13-16  entry H          line    40 file /storage/home/hhive1/csargent30/data/miniconda3/envs/psi4/share/psi4/basis/aug-cc-pvdz.gbs
    atoms 7-10, 17-20 entry C          line   182 file /storage/home/hhive1/csargent30/data/miniconda3/envs/psi4/share/psi4/basis/aug-cc-pvdz.gbs


         ---------------------------------------------------------
                                   SCF
               by Justin Turney, Rob Parrish, Andy Simmonett
                          and Daniel G. A. Smith
                              RHF Reference
                        2 Threads,   6675 MiB Core
         ---------------------------------------------------------

  ==> Geometry <==

    Molecular point group: c1
    Full point group: C1

    Geometry (in Bohr), charge = 0, multiplicity = 1:

       Center              X                  Y                   Z               Mass
    ------------   -----------------  -----------------  -----------------  -----------------
         N           -1.330847580000     0.980326580000     0.426270370000    14.003074004430
         N            3.953773330000     0.980326580000     0.426270370000    14.003074004430
         H            3.567136740000     4.352185690000    -0.942309730000     1.007825032230
         H           -0.944210980000     4.352185690000    -0.942309730000     1.007825032230
         H           -0.944210980000    -2.391532530000     1.794850470000     1.007825032230
         H            3.567136740000    -2.391532530000     1.794850470000     1.007825032230
         C            2.622925760000     2.940979740000    -0.426270370000    12.000000000000
         C            0.000000000000     2.940979740000    -0.426270370000    12.000000000000
         C            0.000000000000    -0.980326580000     1.278811120000    12.000000000000
         C            2.622925760000    -0.980326580000     1.278811120000    12.000000000000
         N          -10.142073580000    -4.547311310000   -38.373680920000    14.003074004430
         N           -4.857452670000    -4.547311310000   -38.373680920000    14.003074004430
         H           -9.755436980000    -7.919170420000   -39.742261020000     1.007825032230
         H           -9.755436980000    -1.175452200000   -37.005100820000     1.007825032230
         H           -5.244089270000    -7.919170420000   -39.742261020000     1.007825032230
         H           -5.244089270000    -1.175452200000   -37.005100820000     1.007825032230
         C           -8.811226010000    -6.507964470000   -39.226221670000    12.000000000000
         C           -8.811226010000    -2.586658150000   -37.521140170000    12.000000000000
         C           -6.188300250000    -6.507964470000   -39.226221670000    12.000000000000
         C           -6.188300250000    -2.586658150000   -37.521140170000    12.000000000000

  Running in c1 symmetry.

  Rotational constants: A =      0.04956  B =      0.00048  C =      0.00048 [cm^-1]
  Rotational constants: A =   1485.90111  B =     14.47677  C =     14.45009 [MHz]
  Nuclear repulsion =  468.874394545465293

  Charge       = 0
  Multiplicity = 1
  Electrons    = 84
  Nalpha       = 42
  Nbeta        = 42

  ==> Algorithm <==

  SCF Algorithm Type is DF.
  DIIS enabled.
  MOM disabled.
  Fractional occupation disabled.
  Guess Type is SAD.
  Energy threshold   = 1.00e-10
  Density threshold  = 1.00e-10
  Integral threshold = 1.00e-12

  ==> Primary Basis <==

  Basis Set: AUG-CC-PVDZ
    Blend: AUG-CC-PVDZ
    Number of shells: 148
    Number of basis functions: 348
    Number of Cartesian functions: 372
    Spherical Harmonics?: true
    Max angular momentum: 2

   => Loading Basis Set <=

    Name: (AUG-CC-PVDZ AUX)
    Role: JKFIT
    Keyword: DF_BASIS_SCF
    atoms 1-2, 11-12  entry N          line   212 file /storage/home/hhive1/csargent30/data/miniconda3/envs/psi4/share/psi4/basis/aug-cc-pvdz-jkfit.gbs
    atoms 3-6, 13-16  entry H          line    70 file /storage/home/hhive1/csargent30/data/miniconda3/envs/psi4/share/psi4/basis/aug-cc-pvdz-jkfit.gbs
    atoms 7-10, 17-20 entry C          line   154 file /storage/home/hhive1/csargent30/data/miniconda3/envs/psi4/share/psi4/basis/aug-cc-pvdz-jkfit.gbs

  ==> Integral Setup <==

  ==> DiskDFJK: Density-Fitted J/K Matrices <==

    J tasked:                  Yes
    K tasked:                  Yes
    wK tasked:                  No
    OpenMP threads:              2
    Integrals threads:           2
    Memory [MiB]:             5006
    Algorithm:                Core
    Integral Cache:           SAVE
    Schwarz Cutoff:          1E-12
    Fitting Condition:       1E-10

   => Auxiliary Basis Set <=

  Basis Set: (AUG-CC-PVDZ AUX)
    Blend: AUG-CC-PVDZ-JKFIT
    Number of shells: 432
    Number of basis functions: 1288
    Number of Cartesian functions: 1492
    Spherical Harmonics?: true
    Max angular momentum: 3

  Minimum eigenvalue in the overlap matrix is 9.4898719515E-06.
  Reciprocal condition number of the overlap matrix is 7.4017889911E-07.
    Using symmetric orthogonalization.

  ==> Pre-Iterations <==

  SCF Guess: Superposition of Atomic Densities via on-the-fly atomic UHF (no occupation information).

   -------------------------
    Irrep   Nso     Nmo
   -------------------------
     A        348     348
   -------------------------
    Total     348     348
   -------------------------

  ==> Iterations <==

                           Total Energy        Delta E     RMS |[F,P]|

   @DF-RHF iter SAD:  -524.65046250889179   -5.24650e+02   0.00000e+00
   @DF-RHF iter   1:  -525.07881458099007   -4.28352e-01   1.58371e-03 DIIS
   @DF-RHF iter   2:  -525.25757541529561   -1.78761e-01   5.80772e-04 DIIS
   @DF-RHF iter   3:  -525.27724477664754   -1.96694e-02   1.81371e-04 DIIS
   @DF-RHF iter   4:  -525.27969430447058   -2.44953e-03   5.34007e-05 DIIS
   @DF-RHF iter   5:  -525.27987350557430   -1.79201e-04   1.06853e-05 DIIS
   @DF-RHF iter   6:  -525.27988660615210   -1.31006e-05   3.46858e-06 DIIS
   @DF-RHF iter   7:  -525.27988851092493   -1.90477e-06   9.05295e-07 DIIS
   @DF-RHF iter   8:  -525.27988865870407   -1.47779e-07   1.40271e-07 DIIS
   @DF-RHF iter   9:  -525.27988866267731   -3.97324e-09   2.67999e-08 DIIS
   @DF-RHF iter  10:  -525.27988866281748   -1.40176e-10   5.91036e-09 DIIS
   @DF-RHF iter  11:  -525.27988866282169   -4.20641e-12   3.31190e-09 DIIS
   @DF-RHF iter  12:  -525.27988866282249   -7.95808e-13   4.93208e-10 DIIS
   @DF-RHF iter  13:  -525.27988866282340   -9.09495e-13   1.85530e-10 DIIS
   @DF-RHF iter  14:  -525.27988866282271    6.82121e-13   6.11516e-11 DIIS
  Energy and wave function converged.


  ==> Post-Iterations <==

    Orbital Energies [Eh]
    ---------------------

    Doubly Occupied:

       1A    -15.598080     2A    -15.598061     3A    -15.598049
       4A    -15.598030     5A    -11.274247     6A    -11.274216
       7A    -11.274202     8A    -11.274172     9A    -11.272983
      10A    -11.272977    11A    -11.272952    12A    -11.272947
      13A     -1.313354    14A     -1.313324    15A     -1.224183
      16A     -1.224153    17A     -1.076811    18A     -1.076781
      19A     -0.922671    20A     -0.922640    21A     -0.919291
      22A     -0.919260    23A     -0.760645    24A     -0.760614
      25A     -0.738410    26A     -0.738380    27A     -0.706222
      28A     -0.706191    29A     -0.647696    30A     -0.647665
      31A     -0.580719    32A     -0.580688    33A     -0.574377
      34A     -0.574346    35A     -0.497120    36A     -0.497090
      37A     -0.434295    38A     -0.434265    39A     -0.415863
      40A     -0.415833    41A     -0.359932    42A     -0.359902

    Virtual:

      43A      0.034487    44A      0.034518    45A      0.040727
      46A      0.040757    47A      0.048376    48A      0.048405
      49A      0.058582    50A      0.058611    51A      0.067105
      52A      0.067136    53A      0.099411    54A      0.099442
      55A      0.100938    56A      0.100969    57A      0.114194
      58A      0.114226    59A      0.114944    60A      0.114976
      61A      0.123768    62A      0.123797    63A      0.125316
      64A      0.125346    65A      0.128651    66A      0.128681
      67A      0.132880    68A      0.132912    69A      0.158189
      70A      0.158219    71A      0.161075    72A      0.161106
      73A      0.161317    74A      0.161347    75A      0.163906
      76A      0.163935    77A      0.175169    78A      0.175199
      79A      0.186911    80A      0.186941    81A      0.203900
      82A      0.203931    83A      0.212532    84A      0.212563
      85A      0.250511    86A      0.250542    87A      0.267749
      88A      0.267779    89A      0.278049    90A      0.278079
      91A      0.287806    92A      0.287836    93A      0.293198
      94A      0.293228    95A      0.295742    96A      0.295771
      97A      0.314823    98A      0.314853    99A      0.320449
     100A      0.320480   101A      0.355420   102A      0.355449
     103A      0.357900   104A      0.357930   105A      0.364653
     106A      0.364683   107A      0.382574   108A      0.382604
     109A      0.398882   110A      0.398913   111A      0.409887
     112A      0.409917   113A      0.425444   114A      0.425474
     115A      0.433916   116A      0.433947   117A      0.437202
     118A      0.437232   119A      0.452083   120A      0.452113
     121A      0.471475   122A      0.471506   123A      0.492131
     124A      0.492161   125A      0.504852   126A      0.504883
     127A      0.514906   128A      0.514937   129A      0.524538
     130A      0.524569   131A      0.528661   132A      0.528691
     133A      0.554569   134A      0.554600   135A      0.570527
     136A      0.570557   137A      0.587527   138A      0.587557
     139A      0.591498   140A      0.591529   141A      0.593791
     142A      0.593822   143A      0.608920   144A      0.608951
     145A      0.643509   146A      0.643539   147A      0.644312
     148A      0.644342   149A      0.685128   150A      0.685159
     151A      0.687750   152A      0.687781   153A      0.689923
     154A      0.689953   155A      0.690334   156A      0.690364
     157A      0.694819   158A      0.694849   159A      0.703821
     160A      0.703851   161A      0.746549   162A      0.746579
     163A      0.754808   164A      0.754839   165A      0.766957
     166A      0.766988   167A      0.781398   168A      0.781429
     169A      0.799806   170A      0.799836   171A      0.802702
     172A      0.802732   173A      0.819008   174A      0.819039
     175A      0.831063   176A      0.831094   177A      0.847505
     178A      0.847535   179A      0.880536   180A      0.880566
     181A      0.886401   182A      0.886432   183A      0.894674
     184A      0.894705   185A      0.929263   186A      0.929294
     187A      0.939459   188A      0.939489   189A      0.949298
     190A      0.949328   191A      0.996644   192A      0.996674
     193A      0.998900   194A      0.998930   195A      1.013008
     196A      1.013038   197A      1.033362   198A      1.033392
     199A      1.051186   200A      1.051217   201A      1.089373
     202A      1.089404   203A      1.100437   204A      1.100468
     205A      1.122190   206A      1.122221   207A      1.124037
     208A      1.124067   209A      1.134354   210A      1.134384
     211A      1.158732   212A      1.158763   213A      1.173557
     214A      1.173587   215A      1.235408   216A      1.235439
     217A      1.238796   218A      1.238826   219A      1.309665
     220A      1.309696   221A      1.331140   222A      1.331171
     223A      1.414274   224A      1.414304   225A      1.451519
     226A      1.451549   227A      1.486129   228A      1.486160
     229A      1.488067   230A      1.488097   231A      1.499202
     232A      1.499233   233A      1.502838   234A      1.502868
     235A      1.518243   236A      1.518274   237A      1.572678
     238A      1.572709   239A      1.574184   240A      1.574215
     241A      1.587828   242A      1.587859   243A      1.635973
     244A      1.636004   245A      1.640496   246A      1.640527
     247A      1.648211   248A      1.648242   249A      1.676544
     250A      1.676574   251A      1.716983   252A      1.717014
     253A      1.746589   254A      1.746620   255A      1.755096
     256A      1.755126   257A      1.783754   258A      1.783785
     259A      1.815719   260A      1.815750   261A      1.893315
     262A      1.893345   263A      1.916129   264A      1.916159
     265A      1.964820   266A      1.964851   267A      1.987667
     268A      1.987697   269A      2.031194   270A      2.031224
     271A      2.091540   272A      2.091571   273A      2.101020
     274A      2.101050   275A      2.142945   276A      2.142976
     277A      2.163347   278A      2.163378   279A      2.190480
     280A      2.190510   281A      2.193293   282A      2.193324
     283A      2.200371   284A      2.200402   285A      2.202402
     286A      2.202432   287A      2.227618   288A      2.227648
     289A      2.312753   290A      2.312783   291A      2.355220
     292A      2.355251   293A      2.430949   294A      2.430979
     295A      2.438969   296A      2.438999   297A      2.519371
     298A      2.519401   299A      2.522386   300A      2.522417
     301A      2.584759   302A      2.584789   303A      2.606258
     304A      2.606289   305A      2.665216   306A      2.665246
     307A      2.675401   308A      2.675432   309A      2.686387
     310A      2.686418   311A      2.713977   312A      2.714008
     313A      2.718583   314A      2.718613   315A      2.844006
     316A      2.844037   317A      2.865753   318A      2.865783
     319A      2.939188   320A      2.939218   321A      3.001847
     322A      3.001878   323A      3.017864   324A      3.017894
     325A      3.032178   326A      3.032209   327A      3.094128
     328A      3.094159   329A      3.220308   330A      3.220339
     331A      3.255971   332A      3.256002   333A      3.284872
     334A      3.284902   335A      3.366132   336A      3.366162
     337A      3.413358   338A      3.413389   339A      3.514912
     340A      3.514942   341A      3.590646   342A      3.590677
     343A      3.627761   344A      3.627791   345A      3.977228
     346A      3.977258   347A      4.253477   348A      4.253508

    Final Occupation by Irrep:
              A
    DOCC [    42 ]

  @DF-RHF Final Energy:  -525.27988866282271

   => Energetics <=

    Nuclear Repulsion Energy =            468.8743945454652930
    One-Electron Energy =               -1638.4612896885291775
    Two-Electron Energy =                 644.3070064802411707
    Total Energy =                       -525.2798886628227137

Computation Completed


Properties will be evaluated at   0.000000,   0.000000,   0.000000 [a0]

Properties computed using the SCF density matrix

  Nuclear Dipole Moment: [e a0]
     X:  -259.9086      Y:  -149.8134      Z: -1593.7912

  Electronic Dipole Moment: [e a0]
     X:   259.9087      Y:   149.8131      Z:  1593.7914

  Dipole Moment: [e a0]
     X:     0.0000      Y:    -0.0003      Z:     0.0001     Total:     0.0003

  Dipole Moment: [D]
     X:     0.0001      Y:    -0.0007      Z:     0.0003     Total:     0.0008


*** tstop() called on atl1-1-01-013-14-l.pace.gatech.edu at Mon Nov 29 16:10:58 2021
Module time:
	user time   =      25.77 seconds =       0.43 minutes
	system time =       0.99 seconds =       0.02 minutes
	total time  =         14 seconds =       0.23 minutes
Total time:
	user time   =      25.77 seconds =       0.43 minutes
	system time =       0.99 seconds =       0.02 minutes
	total time  =         14 seconds =       0.23 minutes

  //>>>>>>>>>>>>>>>>>>>>>>>>>>>>>>>>>>>//
  //            Monomer A HF           //
  //<<<<<<<<<<<<<<<<<<<<<<<<<<<<<<<<<<<//


*** tstart() called on atl1-1-01-013-14-l.pace.gatech.edu
*** at Mon Nov 29 16:10:58 2021

   => Loading Basis Set <=

    Name: AUG-CC-PVDZ
    Role: ORBITAL
    Keyword: BASIS
    atoms 1-2, 11-12  entry N          line   218 file /storage/home/hhive1/csargent30/data/miniconda3/envs/psi4/share/psi4/basis/aug-cc-pvdz.gbs
    atoms 3-6, 13-16  entry H          line    40 file /storage/home/hhive1/csargent30/data/miniconda3/envs/psi4/share/psi4/basis/aug-cc-pvdz.gbs
    atoms 7-10, 17-20 entry C          line   182 file /storage/home/hhive1/csargent30/data/miniconda3/envs/psi4/share/psi4/basis/aug-cc-pvdz.gbs


         ---------------------------------------------------------
                                   SCF
               by Justin Turney, Rob Parrish, Andy Simmonett
                          and Daniel G. A. Smith
                              RHF Reference
                        2 Threads,   6675 MiB Core
         ---------------------------------------------------------

  ==> Geometry <==

    Molecular point group: c1
    Full point group: C1

    Geometry (in Bohr), charge = 0, multiplicity = 1:

       Center              X                  Y                   Z               Mass
    ------------   -----------------  -----------------  -----------------  -----------------
         N           -1.330847580000     0.980326580000     0.426270370000    14.003074004430
         N            3.953773330000     0.980326580000     0.426270370000    14.003074004430
         H            3.567136740000     4.352185690000    -0.942309730000     1.007825032230
         H           -0.944210980000     4.352185690000    -0.942309730000     1.007825032230
         H           -0.944210980000    -2.391532530000     1.794850470000     1.007825032230
         H            3.567136740000    -2.391532530000     1.794850470000     1.007825032230
         C            2.622925760000     2.940979740000    -0.426270370000    12.000000000000
         C            0.000000000000     2.940979740000    -0.426270370000    12.000000000000
         C            0.000000000000    -0.980326580000     1.278811120000    12.000000000000
         C            2.622925760000    -0.980326580000     1.278811120000    12.000000000000
      Gh(N)         -10.142073580000    -4.547311310000   -38.373680920000    14.003074004430
      Gh(N)          -4.857452670000    -4.547311310000   -38.373680920000    14.003074004430
      Gh(H)          -9.755436980000    -7.919170420000   -39.742261020000     1.007825032230
      Gh(H)          -9.755436980000    -1.175452200000   -37.005100820000     1.007825032230
      Gh(H)          -5.244089270000    -7.919170420000   -39.742261020000     1.007825032230
      Gh(H)          -5.244089270000    -1.175452200000   -37.005100820000     1.007825032230
      Gh(C)          -8.811226010000    -6.507964470000   -39.226221670000    12.000000000000
      Gh(C)          -8.811226010000    -2.586658150000   -37.521140170000    12.000000000000
      Gh(C)          -6.188300250000    -6.507964470000   -39.226221670000    12.000000000000
      Gh(C)          -6.188300250000    -2.586658150000   -37.521140170000    12.000000000000

  Running in c1 symmetry.

  Rotational constants: A =      0.04956  B =      0.00048  C =      0.00048 [cm^-1]
  Rotational constants: A =   1485.90111  B =     14.47677  C =     14.45009 [MHz]
  Nuclear repulsion =  212.551731110485349

  Charge       = 0
  Multiplicity = 1
  Electrons    = 42
  Nalpha       = 21
  Nbeta        = 21

  ==> Algorithm <==

  SCF Algorithm Type is DF.
  DIIS enabled.
  MOM disabled.
  Fractional occupation disabled.
  Guess Type is SAD.
  Energy threshold   = 1.00e-10
  Density threshold  = 1.00e-10
  Integral threshold = 1.00e-12

  ==> Primary Basis <==

  Basis Set: AUG-CC-PVDZ
    Blend: AUG-CC-PVDZ
    Number of shells: 148
    Number of basis functions: 348
    Number of Cartesian functions: 372
    Spherical Harmonics?: true
    Max angular momentum: 2

   => Loading Basis Set <=

    Name: (AUG-CC-PVDZ AUX)
    Role: JKFIT
    Keyword: DF_BASIS_SCF
    atoms 1-2, 11-12  entry N          line   212 file /storage/home/hhive1/csargent30/data/miniconda3/envs/psi4/share/psi4/basis/aug-cc-pvdz-jkfit.gbs
    atoms 3-6, 13-16  entry H          line    70 file /storage/home/hhive1/csargent30/data/miniconda3/envs/psi4/share/psi4/basis/aug-cc-pvdz-jkfit.gbs
    atoms 7-10, 17-20 entry C          line   154 file /storage/home/hhive1/csargent30/data/miniconda3/envs/psi4/share/psi4/basis/aug-cc-pvdz-jkfit.gbs

  ==> Integral Setup <==

  ==> DiskDFJK: Density-Fitted J/K Matrices <==

    J tasked:                  Yes
    K tasked:                  Yes
    wK tasked:                  No
    OpenMP threads:              2
    Integrals threads:           2
    Memory [MiB]:             5006
    Algorithm:                Core
    Integral Cache:           LOAD
    Schwarz Cutoff:          1E-12
    Fitting Condition:       1E-10

   => Auxiliary Basis Set <=

  Basis Set: (AUG-CC-PVDZ AUX)
    Blend: AUG-CC-PVDZ-JKFIT
    Number of shells: 432
    Number of basis functions: 1288
    Number of Cartesian functions: 1492
    Spherical Harmonics?: true
    Max angular momentum: 3

  Minimum eigenvalue in the overlap matrix is 9.4898719515E-06.
  Reciprocal condition number of the overlap matrix is 7.4017889911E-07.
    Using symmetric orthogonalization.

  ==> Pre-Iterations <==

  SCF Guess: Superposition of Atomic Densities via on-the-fly atomic UHF (no occupation information).

   -------------------------
    Irrep   Nso     Nmo
   -------------------------
     A        348     348
   -------------------------
    Total     348     348
   -------------------------

  ==> Iterations <==

                           Total Energy        Delta E     RMS |[F,P]|

   @DF-RHF iter SAD:  -262.32523125627381   -2.62325e+02   0.00000e+00
   @DF-RHF iter   1:  -262.53940798117696   -2.14177e-01   1.11985e-03 DIIS
   @DF-RHF iter   2:  -262.62878837361507   -8.93804e-02   4.10664e-04 DIIS
   @DF-RHF iter   3:  -262.63862291819919   -9.83454e-03   1.28248e-04 DIIS
   @DF-RHF iter   4:  -262.63984767147520   -1.22475e-03   3.77599e-05 DIIS
   @DF-RHF iter   5:  -262.63993727193656   -8.96005e-05   7.55558e-06 DIIS
   @DF-RHF iter   6:  -262.63994382219630   -6.55026e-06   2.45264e-06 DIIS
   @DF-RHF iter   7:  -262.63994477456993   -9.52374e-07   6.40130e-07 DIIS
   @DF-RHF iter   8:  -262.63994484845830   -7.38884e-08   9.91693e-08 DIIS
   @DF-RHF iter   9:  -262.63994485044333   -1.98503e-09   1.88228e-08 DIIS
   @DF-RHF iter  10:  -262.63994485051455   -7.12248e-11   3.19151e-09 DIIS
   @DF-RHF iter  11:  -262.63994485051603   -1.47793e-12   5.22317e-10 DIIS
   @DF-RHF iter  12:  -262.63994485051654   -5.11591e-13   9.54346e-11 DIIS
  Energy and wave function converged.


  ==> Post-Iterations <==

    Orbital Energies [Eh]
    ---------------------

    Doubly Occupied:

       1A    -15.598072     2A    -15.598053     3A    -11.274239
       4A    -11.274194     5A    -11.272975     6A    -11.272969
       7A     -1.313347     8A     -1.224176     9A     -1.076803
      10A     -0.922662    11A     -0.919282    12A     -0.760637
      13A     -0.738402    14A     -0.706214    15A     -0.647687
      16A     -0.580711    17A     -0.574369    18A     -0.497113
      19A     -0.434288    20A     -0.415855    21A     -0.359924

    Virtual:

      22A      0.022382    23A      0.034497    24A      0.039452
      25A      0.040739    26A      0.041127    27A      0.048384
      28A      0.058591    29A      0.058795    30A      0.067113
      31A      0.079631    32A      0.084993    33A      0.099419
      34A      0.100948    35A      0.103939    36A      0.108462
      37A      0.108801    38A      0.114201    39A      0.114951
      40A      0.122446    41A      0.123776    42A      0.125322
      43A      0.125532    44A      0.128661    45A      0.130893
      46A      0.132889    47A      0.134094    48A      0.152049
      49A      0.152975    50A      0.158199    51A      0.159292
      52A      0.161084    53A      0.161326    54A      0.163914
      55A      0.175179    56A      0.176689    57A      0.186918
      58A      0.197748    59A      0.203850    60A      0.203908
      61A      0.206611    62A      0.212538    63A      0.222328
      64A      0.233559    65A      0.239384    66A      0.250517
      67A      0.255169    68A      0.267756    69A      0.270724
      70A      0.278056    71A      0.287812    72A      0.293207
      73A      0.295749    74A      0.302268    75A      0.314832
      76A      0.320457    77A      0.320585    78A      0.328104
      79A      0.331248    80A      0.344065    81A      0.355428
      82A      0.357908    83A      0.364661    84A      0.380444
      85A      0.382583    86A      0.385582    87A      0.398891
      88A      0.401218    89A      0.409895    90A      0.419216
      91A      0.424896    92A      0.425453    93A      0.433925
      94A      0.437212    95A      0.441878    96A      0.452092
      97A      0.460602    98A      0.461049    99A      0.471483
     100A      0.476031   101A      0.478764   102A      0.492140
     103A      0.504862   104A      0.507766   105A      0.514914
     106A      0.523711   107A      0.524547   108A      0.528668
     109A      0.535677   110A      0.554577   111A      0.557790
     112A      0.561459   113A      0.564440   114A      0.570535
     115A      0.581849   116A      0.587535   117A      0.591506
     118A      0.593799   119A      0.595954   120A      0.608929
     121A      0.615087   122A      0.620106   123A      0.636311
     124A      0.643517   125A      0.644321   126A      0.649300
     127A      0.651436   128A      0.679358   129A      0.685136
     130A      0.685260   131A      0.687758   132A      0.689932
     133A      0.690342   134A      0.694828   135A      0.703829
     136A      0.719834   137A      0.728338   138A      0.746558
     139A      0.746734   140A      0.754817   141A      0.766965
     142A      0.775627   143A      0.781406   144A      0.793577
     145A      0.799815   146A      0.802710   147A      0.811039
     148A      0.811923   149A      0.819016   150A      0.824697
     151A      0.831071   152A      0.847513   153A      0.848008
     154A      0.849130   155A      0.868551   156A      0.880544
     157A      0.886410   158A      0.888095   159A      0.894682
     160A      0.906050   161A      0.929058   162A      0.929272
     163A      0.939466   164A      0.947637   165A      0.949307
     166A      0.970726   167A      0.976881   168A      0.986582
     169A      0.996652   170A      0.998908   171A      1.013015
     172A      1.032364   173A      1.033370   174A      1.046875
     175A      1.051194   176A      1.076210   177A      1.089381
     178A      1.090223   179A      1.100445   180A      1.122199
     181A      1.124044   182A      1.130607   183A      1.134362
     184A      1.140211   185A      1.158740   186A      1.168535
     187A      1.170622   188A      1.173565   189A      1.192153
     190A      1.193186   191A      1.200419   192A      1.222262
     193A      1.235416   194A      1.238804   195A      1.250974
     196A      1.307503   197A      1.309674   198A      1.318208
     199A      1.326359   200A      1.329557   201A      1.331148
     202A      1.346754   203A      1.389159   204A      1.414282
     205A      1.448335   206A      1.451526   207A      1.455405
     208A      1.479079   209A      1.486137   210A      1.487151
     211A      1.488075   212A      1.499211   213A      1.502846
     214A      1.518252   215A      1.572686   216A      1.574192
     217A      1.587836   218A      1.635982   219A      1.640505
     220A      1.648219   221A      1.659187   222A      1.676552
     223A      1.698013   224A      1.716991   225A      1.746597
     226A      1.755104   227A      1.783762   228A      1.815727
     229A      1.893323   230A      1.916137   231A      1.964829
     232A      1.987674   233A      2.031202   234A      2.070174
     235A      2.091548   236A      2.101028   237A      2.102713
     238A      2.119391   239A      2.142953   240A      2.156624
     241A      2.159137   242A      2.163355   243A      2.190488
     244A      2.193301   245A      2.194808   246A      2.200380
     247A      2.202410   248A      2.227626   249A      2.234723
     250A      2.241151   251A      2.249608   252A      2.309962
     253A      2.312761   254A      2.319495   255A      2.355229
     256A      2.384753   257A      2.419157   258A      2.430957
     259A      2.435360   260A      2.438113   261A      2.438977
     262A      2.472624   263A      2.486672   264A      2.498268
     265A      2.519379   266A      2.522395   267A      2.525015
     268A      2.545943   269A      2.568275   270A      2.584766
     271A      2.592320   272A      2.606266   273A      2.625920
     274A      2.665224   275A      2.675409   276A      2.686395
     277A      2.713985   278A      2.716846   279A      2.718591
     280A      2.726600   281A      2.767883   282A      2.844014
     283A      2.865761   284A      2.903984   285A      2.939196
     286A      2.947175   287A      2.955699   288A      2.973290
     289A      3.001855   290A      3.017872   291A      3.032186
     292A      3.058279   293A      3.065178   294A      3.094137
     295A      3.113817   296A      3.220316   297A      3.245678
     298A      3.255980   299A      3.284880   300A      3.289630
     301A      3.321910   302A      3.337691   303A      3.340436
     304A      3.348608   305A      3.351331   306A      3.366140
     307A      3.412579   308A      3.413367   309A      3.470734
     310A      3.501935   311A      3.514920   312A      3.521344
     313A      3.590655   314A      3.604418   315A      3.605625
     316A      3.627769   317A      3.700465   318A      3.818905
     319A      3.830669   320A      3.940950   321A      3.969076
     322A      3.977236   323A      4.011383   324A      4.194739
     325A      4.242231   326A      4.253485   327A      4.441969
     328A      4.546810   329A      4.579258   330A      4.867621
     331A      4.976124   332A      5.057833   333A      5.261692
     334A      5.316520   335A      5.630178   336A      5.691305
     337A      5.827129   338A      5.952613   339A      6.283809
     340A      6.306870   341A      6.453747   342A      6.631181
     343A     18.125698   344A     18.207960   345A     19.017555
     346A     19.342981   347A     25.287043   348A     25.374762

    Final Occupation by Irrep:
              A
    DOCC [    21 ]

  @DF-RHF Final Energy:  -262.63994485051654

   => Energetics <=

    Nuclear Repulsion Energy =            212.5517311104853491
    One-Electron Energy =                -775.4594096421619724
    Two-Electron Energy =                 300.2677336811601094
    Total Energy =                       -262.6399448505165424

Computation Completed


Properties will be evaluated at   0.000000,   0.000000,   0.000000 [a0]

Properties computed using the SCF density matrix

  Nuclear Dipole Moment: [e a0]
     X:    55.0814      Y:    41.1737      Z:    17.9034

  Electronic Dipole Moment: [e a0]
     X:   -55.0814      Y:   -41.1737      Z:   -17.9034

  Dipole Moment: [e a0]
     X:    -0.0000      Y:    -0.0000      Z:     0.0000     Total:     0.0000

  Dipole Moment: [D]
     X:    -0.0000      Y:    -0.0000      Z:     0.0000     Total:     0.0000


*** tstop() called on atl1-1-01-013-14-l.pace.gatech.edu at Mon Nov 29 16:11:07 2021
Module time:
	user time   =      15.81 seconds =       0.26 minutes
	system time =       0.49 seconds =       0.01 minutes
	total time  =          9 seconds =       0.15 minutes
Total time:
	user time   =      41.59 seconds =       0.69 minutes
	system time =       1.48 seconds =       0.02 minutes
	total time  =         23 seconds =       0.38 minutes

  //>>>>>>>>>>>>>>>>>>>>>>>>>>>>>>>>>>>//
  //            Monomer B HF           //
  //<<<<<<<<<<<<<<<<<<<<<<<<<<<<<<<<<<<//


*** tstart() called on atl1-1-01-013-14-l.pace.gatech.edu
*** at Mon Nov 29 16:11:07 2021

   => Loading Basis Set <=

    Name: AUG-CC-PVDZ
    Role: ORBITAL
    Keyword: BASIS
    atoms 1-2, 11-12  entry N          line   218 file /storage/home/hhive1/csargent30/data/miniconda3/envs/psi4/share/psi4/basis/aug-cc-pvdz.gbs
    atoms 3-6, 13-16  entry H          line    40 file /storage/home/hhive1/csargent30/data/miniconda3/envs/psi4/share/psi4/basis/aug-cc-pvdz.gbs
    atoms 7-10, 17-20 entry C          line   182 file /storage/home/hhive1/csargent30/data/miniconda3/envs/psi4/share/psi4/basis/aug-cc-pvdz.gbs


         ---------------------------------------------------------
                                   SCF
               by Justin Turney, Rob Parrish, Andy Simmonett
                          and Daniel G. A. Smith
                              RHF Reference
                        2 Threads,   6675 MiB Core
         ---------------------------------------------------------

  ==> Geometry <==

    Molecular point group: c1
    Full point group: C1

    Geometry (in Bohr), charge = 0, multiplicity = 1:

       Center              X                  Y                   Z               Mass
    ------------   -----------------  -----------------  -----------------  -----------------
      Gh(N)          -1.330847580000     0.980326580000     0.426270370000    14.003074004430
      Gh(N)           3.953773330000     0.980326580000     0.426270370000    14.003074004430
      Gh(H)           3.567136740000     4.352185690000    -0.942309730000     1.007825032230
      Gh(H)          -0.944210980000     4.352185690000    -0.942309730000     1.007825032230
      Gh(H)          -0.944210980000    -2.391532530000     1.794850470000     1.007825032230
      Gh(H)           3.567136740000    -2.391532530000     1.794850470000     1.007825032230
      Gh(C)           2.622925760000     2.940979740000    -0.426270370000    12.000000000000
      Gh(C)           0.000000000000     2.940979740000    -0.426270370000    12.000000000000
      Gh(C)           0.000000000000    -0.980326580000     1.278811120000    12.000000000000
      Gh(C)           2.622925760000    -0.980326580000     1.278811120000    12.000000000000
         N          -10.142073580000    -4.547311310000   -38.373680920000    14.003074004430
         N           -4.857452670000    -4.547311310000   -38.373680920000    14.003074004430
         H           -9.755436980000    -7.919170420000   -39.742261020000     1.007825032230
         H           -9.755436980000    -1.175452200000   -37.005100820000     1.007825032230
         H           -5.244089270000    -7.919170420000   -39.742261020000     1.007825032230
         H           -5.244089270000    -1.175452200000   -37.005100820000     1.007825032230
         C           -8.811226010000    -6.507964470000   -39.226221670000    12.000000000000
         C           -8.811226010000    -2.586658150000   -37.521140170000    12.000000000000
         C           -6.188300250000    -6.507964470000   -39.226221670000    12.000000000000
         C           -6.188300250000    -2.586658150000   -37.521140170000    12.000000000000

  Running in c1 symmetry.

  Rotational constants: A =      0.04956  B =      0.00048  C =      0.00048 [cm^-1]
  Rotational constants: A =   1485.90111  B =     14.47677  C =     14.45009 [MHz]
  Nuclear repulsion =  212.551731074928142

  Charge       = 0
  Multiplicity = 1
  Electrons    = 42
  Nalpha       = 21
  Nbeta        = 21

  ==> Algorithm <==

  SCF Algorithm Type is DF.
  DIIS enabled.
  MOM disabled.
  Fractional occupation disabled.
  Guess Type is SAD.
  Energy threshold   = 1.00e-10
  Density threshold  = 1.00e-10
  Integral threshold = 1.00e-12

  ==> Primary Basis <==

  Basis Set: AUG-CC-PVDZ
    Blend: AUG-CC-PVDZ
    Number of shells: 148
    Number of basis functions: 348
    Number of Cartesian functions: 372
    Spherical Harmonics?: true
    Max angular momentum: 2

   => Loading Basis Set <=

    Name: (AUG-CC-PVDZ AUX)
    Role: JKFIT
    Keyword: DF_BASIS_SCF
    atoms 1-2, 11-12  entry N          line   212 file /storage/home/hhive1/csargent30/data/miniconda3/envs/psi4/share/psi4/basis/aug-cc-pvdz-jkfit.gbs
    atoms 3-6, 13-16  entry H          line    70 file /storage/home/hhive1/csargent30/data/miniconda3/envs/psi4/share/psi4/basis/aug-cc-pvdz-jkfit.gbs
    atoms 7-10, 17-20 entry C          line   154 file /storage/home/hhive1/csargent30/data/miniconda3/envs/psi4/share/psi4/basis/aug-cc-pvdz-jkfit.gbs

  ==> Integral Setup <==

  ==> DiskDFJK: Density-Fitted J/K Matrices <==

    J tasked:                  Yes
    K tasked:                  Yes
    wK tasked:                  No
    OpenMP threads:              2
    Integrals threads:           2
    Memory [MiB]:             5006
    Algorithm:                Core
    Integral Cache:           LOAD
    Schwarz Cutoff:          1E-12
    Fitting Condition:       1E-10

   => Auxiliary Basis Set <=

  Basis Set: (AUG-CC-PVDZ AUX)
    Blend: AUG-CC-PVDZ-JKFIT
    Number of shells: 432
    Number of basis functions: 1288
    Number of Cartesian functions: 1492
    Spherical Harmonics?: true
    Max angular momentum: 3

  Minimum eigenvalue in the overlap matrix is 9.4898719515E-06.
  Reciprocal condition number of the overlap matrix is 7.4017889911E-07.
    Using symmetric orthogonalization.

  ==> Pre-Iterations <==

  SCF Guess: Superposition of Atomic Densities via on-the-fly atomic UHF (no occupation information).

   -------------------------
    Irrep   Nso     Nmo
   -------------------------
     A        348     348
   -------------------------
    Total     348     348
   -------------------------

  ==> Iterations <==

                           Total Energy        Delta E     RMS |[F,P]|

   @DF-RHF iter SAD:  -262.32523125217858   -2.62325e+02   0.00000e+00
   @DF-RHF iter   1:  -262.53940797996040   -2.14177e-01   1.11985e-03 DIIS
   @DF-RHF iter   2:  -262.62878837228118   -8.93804e-02   4.10664e-04 DIIS
   @DF-RHF iter   3:  -262.63862291676628   -9.83454e-03   1.28248e-04 DIIS
   @DF-RHF iter   4:  -262.63984767003751   -1.22475e-03   3.77599e-05 DIIS
   @DF-RHF iter   5:  -262.63993727049979   -8.96005e-05   7.55558e-06 DIIS
   @DF-RHF iter   6:  -262.63994382075884   -6.55026e-06   2.45264e-06 DIIS
   @DF-RHF iter   7:  -262.63994477313264   -9.52374e-07   6.40130e-07 DIIS
   @DF-RHF iter   8:  -262.63994484702050   -7.38879e-08   9.91693e-08 DIIS
   @DF-RHF iter   9:  -262.63994484900661   -1.98611e-09   1.88228e-08 DIIS
   @DF-RHF iter  10:  -262.63994484907693   -7.03153e-11   3.19151e-09 DIIS
   @DF-RHF iter  11:  -262.63994484907948   -2.55795e-12   5.22317e-10 DIIS
   @DF-RHF iter  12:  -262.63994484907960   -1.13687e-13   9.54339e-11 DIIS
  Energy and wave function converged.


  ==> Post-Iterations <==

    Orbital Energies [Eh]
    ---------------------

    Doubly Occupied:

       1A    -15.598072     2A    -15.598053     3A    -11.274239
       4A    -11.274194     5A    -11.272975     6A    -11.272969
       7A     -1.313347     8A     -1.224176     9A     -1.076803
      10A     -0.922662    11A     -0.919282    12A     -0.760637
      13A     -0.738402    14A     -0.706214    15A     -0.647687
      16A     -0.580711    17A     -0.574369    18A     -0.497113
      19A     -0.434288    20A     -0.415855    21A     -0.359924

    Virtual:

      22A      0.022351    23A      0.034497    24A      0.039422
      25A      0.040739    26A      0.041098    27A      0.048384
      28A      0.058591    29A      0.058766    30A      0.067113
      31A      0.079600    32A      0.084962    33A      0.099419
      34A      0.100948    35A      0.103910    36A      0.108431
      37A      0.108771    38A      0.114201    39A      0.114951
      40A      0.122415    41A      0.123776    42A      0.125322
      43A      0.125502    44A      0.128661    45A      0.130862
      46A      0.132889    47A      0.134064    48A      0.152020
      49A      0.152945    50A      0.158199    51A      0.159261
      52A      0.161084    53A      0.161326    54A      0.163914
      55A      0.175179    56A      0.176659    57A      0.186918
      58A      0.197718    59A      0.203821    60A      0.203908
      61A      0.206578    62A      0.212538    63A      0.222298
      64A      0.233529    65A      0.239355    66A      0.250517
      67A      0.255138    68A      0.267756    69A      0.270694
      70A      0.278056    71A      0.287812    72A      0.293207
      73A      0.295749    74A      0.302237    75A      0.314832
      76A      0.320457    77A      0.320555    78A      0.328073
      79A      0.331218    80A      0.344035    81A      0.355428
      82A      0.357908    83A      0.364661    84A      0.380414
      85A      0.382583    86A      0.385551    87A      0.398891
      88A      0.401188    89A      0.409895    90A      0.419187
      91A      0.424865    92A      0.425453    93A      0.433925
      94A      0.437212    95A      0.441848    96A      0.452092
      97A      0.460572    98A      0.461019    99A      0.471483
     100A      0.476001   101A      0.478734   102A      0.492140
     103A      0.504862   104A      0.507736   105A      0.514914
     106A      0.523681   107A      0.524547   108A      0.528668
     109A      0.535647   110A      0.554577   111A      0.557760
     112A      0.561429   113A      0.564410   114A      0.570535
     115A      0.581819   116A      0.587535   117A      0.591506
     118A      0.593799   119A      0.595924   120A      0.608929
     121A      0.615057   122A      0.620076   123A      0.636280
     124A      0.643517   125A      0.644321   126A      0.649270
     127A      0.651405   128A      0.679328   129A      0.685136
     130A      0.685230   131A      0.687758   132A      0.689932
     133A      0.690342   134A      0.694828   135A      0.703830
     136A      0.719803   137A      0.728307   138A      0.746558
     139A      0.746703   140A      0.754817   141A      0.766965
     142A      0.775597   143A      0.781406   144A      0.793546
     145A      0.799815   146A      0.802710   147A      0.811009
     148A      0.811893   149A      0.819016   150A      0.824667
     151A      0.831071   152A      0.847513   153A      0.847978
     154A      0.849100   155A      0.868521   156A      0.880544
     157A      0.886410   158A      0.888064   159A      0.894682
     160A      0.906019   161A      0.929027   162A      0.929272
     163A      0.939466   164A      0.947607   165A      0.949307
     166A      0.970695   167A      0.976850   168A      0.986552
     169A      0.996652   170A      0.998908   171A      1.013015
     172A      1.032334   173A      1.033370   174A      1.046845
     175A      1.051194   176A      1.076179   177A      1.089381
     178A      1.090193   179A      1.100445   180A      1.122199
     181A      1.124044   182A      1.130577   183A      1.134362
     184A      1.140180   185A      1.158740   186A      1.168504
     187A      1.170591   188A      1.173565   189A      1.192123
     190A      1.193156   191A      1.200389   192A      1.222231
     193A      1.235416   194A      1.238804   195A      1.250943
     196A      1.307473   197A      1.309674   198A      1.318177
     199A      1.326328   200A      1.329527   201A      1.331148
     202A      1.346723   203A      1.389129   204A      1.414282
     205A      1.448305   206A      1.451526   207A      1.455375
     208A      1.479049   209A      1.486137   210A      1.487121
     211A      1.488075   212A      1.499211   213A      1.502846
     214A      1.518252   215A      1.572686   216A      1.574192
     217A      1.587836   218A      1.635982   219A      1.640505
     220A      1.648219   221A      1.659157   222A      1.676552
     223A      1.697982   224A      1.716991   225A      1.746597
     226A      1.755104   227A      1.783762   228A      1.815727
     229A      1.893323   230A      1.916137   231A      1.964829
     232A      1.987674   233A      2.031202   234A      2.070144
     235A      2.091548   236A      2.101028   237A      2.102682
     238A      2.119361   239A      2.142953   240A      2.156593
     241A      2.159107   242A      2.163355   243A      2.190488
     244A      2.193301   245A      2.194777   246A      2.200380
     247A      2.202410   248A      2.227626   249A      2.234692
     250A      2.241120   251A      2.249577   252A      2.309932
     253A      2.312761   254A      2.319464   255A      2.355229
     256A      2.384722   257A      2.419127   258A      2.430957
     259A      2.435330   260A      2.438083   261A      2.438977
     262A      2.472594   263A      2.486641   264A      2.498238
     265A      2.519379   266A      2.522395   267A      2.524985
     268A      2.545913   269A      2.568244   270A      2.584766
     271A      2.592290   272A      2.606266   273A      2.625890
     274A      2.665224   275A      2.675409   276A      2.686395
     277A      2.713985   278A      2.716815   279A      2.718591
     280A      2.726569   281A      2.767852   282A      2.844014
     283A      2.865761   284A      2.903954   285A      2.939196
     286A      2.947144   287A      2.955669   288A      2.973259
     289A      3.001855   290A      3.017872   291A      3.032186
     292A      3.058249   293A      3.065147   294A      3.094137
     295A      3.113786   296A      3.220316   297A      3.245647
     298A      3.255980   299A      3.284880   300A      3.289600
     301A      3.321880   302A      3.337660   303A      3.340405
     304A      3.348577   305A      3.351301   306A      3.366140
     307A      3.412549   308A      3.413367   309A      3.470704
     310A      3.501904   311A      3.514920   312A      3.521313
     313A      3.590655   314A      3.604387   315A      3.605595
     316A      3.627769   317A      3.700435   318A      3.818874
     319A      3.830638   320A      3.940919   321A      3.969046
     322A      3.977236   323A      4.011353   324A      4.194708
     325A      4.242200   326A      4.253485   327A      4.441939
     328A      4.546780   329A      4.579227   330A      4.867590
     331A      4.976094   332A      5.057803   333A      5.261662
     334A      5.316490   335A      5.630148   336A      5.691274
     337A      5.827098   338A      5.952582   339A      6.283778
     340A      6.306840   341A      6.453716   342A      6.631150
     343A     18.125667   344A     18.207929   345A     19.017525
     346A     19.342950   347A     25.287012   348A     25.374732

    Final Occupation by Irrep:
              A
    DOCC [    21 ]

  @DF-RHF Final Energy:  -262.63994484907960

   => Energetics <=

    Nuclear Repulsion Energy =            212.5517310749281421
    One-Electron Energy =                -775.4594095623943986
    Two-Electron Energy =                 300.2677336383866304
    Total Energy =                       -262.6399448490795976

Computation Completed


Properties will be evaluated at   0.000000,   0.000000,   0.000000 [a0]

Properties computed using the SCF density matrix

  Nuclear Dipole Moment: [e a0]
     X:  -314.9901      Y:  -190.9871      Z: -1611.6946

  Electronic Dipole Moment: [e a0]
     X:   314.9901      Y:   190.9871      Z:  1611.6946

  Dipole Moment: [e a0]
     X:     0.0000      Y:    -0.0000      Z:    -0.0000     Total:     0.0000

  Dipole Moment: [D]
     X:     0.0000      Y:    -0.0000      Z:    -0.0000     Total:     0.0000


*** tstop() called on atl1-1-01-013-14-l.pace.gatech.edu at Mon Nov 29 16:11:16 2021
Module time:
	user time   =      15.79 seconds =       0.26 minutes
	system time =       0.51 seconds =       0.01 minutes
	total time  =          9 seconds =       0.15 minutes
Total time:
	user time   =      57.39 seconds =       0.96 minutes
	system time =       1.99 seconds =       0.03 minutes
	total time  =         32 seconds =       0.53 minutes
  Constructing Basis Sets for SAPT...

   => Loading Basis Set <=

    Name: (AUG-CC-PVDZ AUX)
    Role: RIFIT
    Keyword: DF_BASIS_SAPT
    atoms 1-2, 11-12  entry N          line   158 file /storage/home/hhive1/csargent30/data/miniconda3/envs/psi4/share/psi4/basis/aug-cc-pvdz-ri.gbs
    atoms 3-6, 13-16  entry H          line    30 file /storage/home/hhive1/csargent30/data/miniconda3/envs/psi4/share/psi4/basis/aug-cc-pvdz-ri.gbs
    atoms 7-10, 17-20 entry C          line   112 file /storage/home/hhive1/csargent30/data/miniconda3/envs/psi4/share/psi4/basis/aug-cc-pvdz-ri.gbs


  //>>>>>>>>>>>>>>>>>>>>>>>>>>>>>>>>>>>//
  //               SAPT0               //
  //<<<<<<<<<<<<<<<<<<<<<<<<<<<<<<<<<<<//


*** tstart() called on atl1-1-01-013-14-l.pace.gatech.edu
*** at Mon Nov 29 16:11:16 2021

        SAPT0
    Ed Hohenstein
     6 June 2009

      Orbital Information
  --------------------------
    NSO        =       348
    NMO        =       348
    NRI        =      1048
    NOCC A     =        21
    NOCC B     =        21
    FOCC A     =         6
    FOCC B     =         6
    NVIR A     =       327
    NVIR B     =       327

    Elst10,r            =     0.000001030735 [Eh]
    Exch10              =     0.000000000000 [Eh]
    Exch10 (S^2)        =     0.000000000000 [Eh]

    Iter     Energy [mEh]          dE [mEh]         Residual      Time [s]
       1      -0.00000047       0.000000475       0.007946649             0
       2      -0.00000042      -0.000000052       0.001654586             1
       3      -0.00000047       0.000000048       0.000611552             1
       4      -0.00000047       0.000000003       0.000376659             1
       5      -0.00000047      -0.000000002       0.000174874             2
       6      -0.00000047      -0.000000001       0.000051651             2
       7      -0.00000047       0.000000000       0.000018431             3
       8      -0.00000047       0.000000000       0.000004711             3
       9      -0.00000047      -0.000000000       0.000001772             3
      10      -0.00000047      -0.000000000       0.000000569             4

    CHF Iterations converged


    Iter     Energy [mEh]          dE [mEh]         Residual      Time [s]
       1      -0.00000016       0.000000157       0.003868009             0
       2      -0.00000014      -0.000000017       0.000848622             0
       3      -0.00000015       0.000000008       0.000442574             1
       4      -0.00000015       0.000000004       0.000092594             1
       5      -0.00000015      -0.000000000       0.000059950             1
       6      -0.00000015      -0.000000000       0.000024571             2
       7      -0.00000015       0.000000000       0.000006986             2
       8      -0.00000015       0.000000000       0.000002311             3
       9      -0.00000015      -0.000000000       0.000000777             3

    CHF Iterations converged

    Ind20,r (A<-B)      =    -0.000000000472 [Eh]
    Ind20,r (B<-A)      =    -0.000000000151 [Eh]
    Ind20,r             =    -0.000000000623 [Eh]
    Exch-Ind20,r (A<-B) =     0.000000000000 [Eh]
    Exch-Ind20,r (B<-A) =     0.000000000000 [Eh]
    Exch-Ind20,r        =     0.000000000000 [Eh]
    Disp20              =    -0.000000346890 [Eh]
    Disp20 (SS)         =    -0.000000173445 [Eh]
    Disp20 (OS)         =    -0.000000173445 [Eh]
    Exch-Disp20         =     0.000000000000 [Eh]
    Exch-Disp20 (SS)    =     0.000000000000 [Eh]
    Exch-Disp20 (OS)    =     0.000000000000 [Eh]

    SAPT Results
  --------------------------------------------------------------------------------------------------------
    Electrostatics                  0.00103074 [mEh]       0.00064680 [kcal/mol]       0.00270620 [kJ/mol]
      Elst10,r                      0.00103074 [mEh]       0.00064680 [kcal/mol]       0.00270620 [kJ/mol]

    Exchange                        0.00000000 [mEh]       0.00000000 [kcal/mol]       0.00000000 [kJ/mol]
      Exch10                        0.00000000 [mEh]       0.00000000 [kcal/mol]       0.00000000 [kJ/mol]
      Exch10(S^2)                   0.00000000 [mEh]       0.00000000 [kcal/mol]       0.00000000 [kJ/mol]

    Induction                       0.00000604 [mEh]       0.00000379 [kcal/mol]       0.00001585 [kJ/mol]
      Ind20,r                      -0.00000062 [mEh]      -0.00000039 [kcal/mol]      -0.00000164 [kJ/mol]
      Exch-Ind20,r                  0.00000000 [mEh]       0.00000000 [kcal/mol]       0.00000000 [kJ/mol]
      delta HF,r (2)                0.00000666 [mEh]       0.00000418 [kcal/mol]       0.00001749 [kJ/mol]

    Dispersion                     -0.00034689 [mEh]      -0.00021768 [kcal/mol]      -0.00091076 [kJ/mol]
      Disp20                       -0.00034689 [mEh]      -0.00021768 [kcal/mol]      -0.00091076 [kJ/mol]
      Exch-Disp20                   0.00000000 [mEh]       0.00000000 [kcal/mol]       0.00000000 [kJ/mol]
      Disp20 (SS)                  -0.00017345 [mEh]      -0.00010884 [kcal/mol]      -0.00045538 [kJ/mol]
      Disp20 (OS)                  -0.00017345 [mEh]      -0.00010884 [kcal/mol]      -0.00045538 [kJ/mol]
      Exch-Disp20 (SS)              0.00000000 [mEh]       0.00000000 [kcal/mol]       0.00000000 [kJ/mol]
      Exch-Disp20 (OS)              0.00000000 [mEh]       0.00000000 [kcal/mol]       0.00000000 [kJ/mol]

  Total HF                          0.00103677 [mEh]       0.00065059 [kcal/mol]       0.00272205 [kJ/mol]
  Total SAPT0                       0.00068988 [mEh]       0.00043291 [kcal/mol]       0.00181129 [kJ/mol]

  Special recipe for scaled SAPT0 (see Manual):
    Electrostatics sSAPT0           0.00103074 [mEh]       0.00064680 [kcal/mol]       0.00270620 [kJ/mol]
    Exchange sSAPT0                 0.00000000 [mEh]       0.00000000 [kcal/mol]       0.00000000 [kJ/mol]
    Induction sSAPT0                0.00000604 [mEh]       0.00000379 [kcal/mol]       0.00001585 [kJ/mol]
    Dispersion sSAPT0              -0.00034689 [mEh]      -0.00021768 [kcal/mol]      -0.00091076 [kJ/mol]
  Total sSAPT0                      0.00068988 [mEh]       0.00043291 [kcal/mol]       0.00181129 [kJ/mol]
  --------------------------------------------------------------------------------------------------------

*** tstop() called on atl1-1-01-013-14-l.pace.gatech.edu at Mon Nov 29 16:12:01 2021
Module time:
	user time   =      37.55 seconds =       0.63 minutes
	system time =       8.29 seconds =       0.14 minutes
	total time  =         45 seconds =       0.75 minutes
Total time:
	user time   =      95.21 seconds =       1.59 minutes
	system time =      10.29 seconds =       0.17 minutes
	total time  =         77 seconds =       1.28 minutes


Warning! sapt0 does not have an associated derived wavefunction.The returned wavefunction is the dimer SCF wavefunction.


    Psi4 stopped on: Monday, 29 November 2021 04:12PM
    Psi4 wall time for execution: 0:01:16.61

*** Psi4 exiting successfully. Buy a developer a beer!
