
    -----------------------------------------------------------------------
          Psi4: An Open-Source Ab Initio Electronic Structure Package
                               Psi4 1.4.1 release

                         Git: Rev {HEAD} cd00f19


    D. G. A. Smith, L. A. Burns, A. C. Simmonett, R. M. Parrish,
    M. C. Schieber, R. Galvelis, P. Kraus, H. Kruse, R. Di Remigio,
    A. Alenaizan, A. M. James, S. Lehtola, J. P. Misiewicz, M. Scheurer,
    R. A. Shaw, J. B. Schriber, Y. Xie, Z. L. Glick, D. A. Sirianni,
    J. S. O'Brien, J. M. Waldrop, A. Kumar, E. G. Hohenstein,
    B. P. Pritchard, B. R. Brooks, H. F. Schaefer III, A. Yu. Sokolov,
    K. Patkowski, A. E. DePrince III, U. Bozkaya, R. A. King,
    F. A. Evangelista, J. M. Turney, T. D. Crawford, C. D. Sherrill,
    J. Chem. Phys. 152(18) 184108 (2020). https://doi.org/10.1063/5.0006002

                            Additional Code Authors
    E. T. Seidl, C. L. Janssen, E. F. Valeev, M. L. Leininger,
    J. F. Gonthier, R. M. Richard, H. R. McAlexander, M. Saitow, X. Wang,
    P. Verma, and M. H. Lechner

             Previous Authors, Complete List of Code Contributors,
                       and Citations for Specific Modules
    https://github.com/psi4/psi4/blob/master/codemeta.json
    https://github.com/psi4/psi4/graphs/contributors
    http://psicode.org/psi4manual/master/introduction.html#citing-psifour

    -----------------------------------------------------------------------


    Psi4 started on: Monday, 29 November 2021 04:10PM

    Process ID: 219903
    Host:       atl1-1-01-015-6-r.pace.gatech.edu
    PSIDATADIR: /storage/home/hhive1/csargent30/data/miniconda3/envs/psi4/share/psi4
    Memory:     500.0 MiB
    Threads:    2

  ==> Input File <==

--------------------------------------------------------------------------
# PSI4 file produced by CrystaLattE

# Generated from:               pyrazine.xyz
# Psithon input for N-mer:      2mer-0+353
# Number of atoms per monomer:  [10, 10]
# Number of replicas:           8
# COM priority:                 1.443463956361e-05
# Minimum COM separations:      21.734
# Separation priority:          2.560033227133e-05
# Minimum monomer separations:  17.955
# Cutoff priority:              7.545027079955e-07
# Nuclear repulsion energy:     468.0974072627929

memory 7 GB

molecule Dimer_0_353 {
  N           -1.33084758       0.98032658       0.42627037
  N            3.95377333       0.98032658       0.42627037
  H            3.56713674       4.35218569      -0.94230973
  H           -0.94421098       4.35218569      -0.94230973
  H           -0.94421098      -2.39153253       1.79485047
  H            3.56713674      -2.39153253       1.79485047
  C            2.62292576       2.94097974      -0.42627037
  C            0.00000000       2.94097974      -0.42627037
  C            0.00000000      -0.98032658       1.27881112
  C            2.62292576      -0.98032658       1.27881112
--
  N          -10.14207358     -37.71313865     -10.15553452
  N           -4.85745267     -37.71313865     -10.15553452
  H           -9.75543698     -41.08499776     -11.52411462
  H           -9.75543698     -34.34127953      -8.78695442
  H           -5.24408927     -41.08499776     -11.52411462
  H           -5.24408927     -34.34127953      -8.78695442
  C           -8.81122601     -39.67379181     -11.00807527
  C           -8.81122601     -35.75248549      -9.30299378
  C           -6.18830025     -39.67379181     -11.00807527
  C           -6.18830025     -35.75248549      -9.30299378
units = au
no_com
no_reorient
}

set {
  e_convergence 10
  d_convergence 10
  scf_type df
  mp2_type df
  cc_type df
  freeze_core true
}

energy('sapt0/aug-cc-pvdz')

--------------------------------------------------------------------------

  Memory set to   6.519 GiB by Python driver.

Scratch directory: /tmp/

Scratch directory: /tmp/

  //>>>>>>>>>>>>>>>>>>>>>>>>>>>>>>>>>>>//
  //              Dimer HF             //
  //<<<<<<<<<<<<<<<<<<<<<<<<<<<<<<<<<<<//


*** tstart() called on atl1-1-01-015-6-r.pace.gatech.edu
*** at Mon Nov 29 16:10:40 2021

   => Loading Basis Set <=

    Name: AUG-CC-PVDZ
    Role: ORBITAL
    Keyword: BASIS
    atoms 1-2, 11-12  entry N          line   218 file /storage/home/hhive1/csargent30/data/miniconda3/envs/psi4/share/psi4/basis/aug-cc-pvdz.gbs
    atoms 3-6, 13-16  entry H          line    40 file /storage/home/hhive1/csargent30/data/miniconda3/envs/psi4/share/psi4/basis/aug-cc-pvdz.gbs
    atoms 7-10, 17-20 entry C          line   182 file /storage/home/hhive1/csargent30/data/miniconda3/envs/psi4/share/psi4/basis/aug-cc-pvdz.gbs


         ---------------------------------------------------------
                                   SCF
               by Justin Turney, Rob Parrish, Andy Simmonett
                          and Daniel G. A. Smith
                              RHF Reference
                        2 Threads,   6675 MiB Core
         ---------------------------------------------------------

  ==> Geometry <==

    Molecular point group: c1
    Full point group: C1

    Geometry (in Bohr), charge = 0, multiplicity = 1:

       Center              X                  Y                   Z               Mass
    ------------   -----------------  -----------------  -----------------  -----------------
         N           -1.330847580000     0.980326580000     0.426270370000    14.003074004430
         N            3.953773330000     0.980326580000     0.426270370000    14.003074004430
         H            3.567136740000     4.352185690000    -0.942309730000     1.007825032230
         H           -0.944210980000     4.352185690000    -0.942309730000     1.007825032230
         H           -0.944210980000    -2.391532530000     1.794850470000     1.007825032230
         H            3.567136740000    -2.391532530000     1.794850470000     1.007825032230
         C            2.622925760000     2.940979740000    -0.426270370000    12.000000000000
         C            0.000000000000     2.940979740000    -0.426270370000    12.000000000000
         C            0.000000000000    -0.980326580000     1.278811120000    12.000000000000
         C            2.622925760000    -0.980326580000     1.278811120000    12.000000000000
         N          -10.142073580000   -37.713138650000   -10.155534520000    14.003074004430
         N           -4.857452670000   -37.713138650000   -10.155534520000    14.003074004430
         H           -9.755436980000   -41.084997760000   -11.524114620000     1.007825032230
         H           -9.755436980000   -34.341279530000    -8.786954420000     1.007825032230
         H           -5.244089270000   -41.084997760000   -11.524114620000     1.007825032230
         H           -5.244089270000   -34.341279530000    -8.786954420000     1.007825032230
         C           -8.811226010000   -39.673791810000   -11.008075270000    12.000000000000
         C           -8.811226010000   -35.752485490000    -9.302993780000    12.000000000000
         C           -6.188300250000   -39.673791810000   -11.008075270000    12.000000000000
         C           -6.188300250000   -35.752485490000    -9.302993780000    12.000000000000

  Running in c1 symmetry.

  Rotational constants: A =      0.07541  B =      0.00047  C =      0.00047 [cm^-1]
  Rotational constants: A =   2260.65262  B =     14.17972  C =     14.11568 [MHz]
  Nuclear repulsion =  468.097407239516315

  Charge       = 0
  Multiplicity = 1
  Electrons    = 84
  Nalpha       = 42
  Nbeta        = 42

  ==> Algorithm <==

  SCF Algorithm Type is DF.
  DIIS enabled.
  MOM disabled.
  Fractional occupation disabled.
  Guess Type is SAD.
  Energy threshold   = 1.00e-10
  Density threshold  = 1.00e-10
  Integral threshold = 1.00e-12

  ==> Primary Basis <==

  Basis Set: AUG-CC-PVDZ
    Blend: AUG-CC-PVDZ
    Number of shells: 148
    Number of basis functions: 348
    Number of Cartesian functions: 372
    Spherical Harmonics?: true
    Max angular momentum: 2

   => Loading Basis Set <=

    Name: (AUG-CC-PVDZ AUX)
    Role: JKFIT
    Keyword: DF_BASIS_SCF
    atoms 1-2, 11-12  entry N          line   212 file /storage/home/hhive1/csargent30/data/miniconda3/envs/psi4/share/psi4/basis/aug-cc-pvdz-jkfit.gbs
    atoms 3-6, 13-16  entry H          line    70 file /storage/home/hhive1/csargent30/data/miniconda3/envs/psi4/share/psi4/basis/aug-cc-pvdz-jkfit.gbs
    atoms 7-10, 17-20 entry C          line   154 file /storage/home/hhive1/csargent30/data/miniconda3/envs/psi4/share/psi4/basis/aug-cc-pvdz-jkfit.gbs

  ==> Integral Setup <==

  ==> DiskDFJK: Density-Fitted J/K Matrices <==

    J tasked:                  Yes
    K tasked:                  Yes
    wK tasked:                  No
    OpenMP threads:              2
    Integrals threads:           2
    Memory [MiB]:             5006
    Algorithm:                Core
    Integral Cache:           SAVE
    Schwarz Cutoff:          1E-12
    Fitting Condition:       1E-10

   => Auxiliary Basis Set <=

  Basis Set: (AUG-CC-PVDZ AUX)
    Blend: AUG-CC-PVDZ-JKFIT
    Number of shells: 432
    Number of basis functions: 1288
    Number of Cartesian functions: 1492
    Spherical Harmonics?: true
    Max angular momentum: 3

  Minimum eigenvalue in the overlap matrix is 9.4898579957E-06.
  Reciprocal condition number of the overlap matrix is 7.4017781066E-07.
    Using symmetric orthogonalization.

  ==> Pre-Iterations <==

  SCF Guess: Superposition of Atomic Densities via on-the-fly atomic UHF (no occupation information).

   -------------------------
    Irrep   Nso     Nmo
   -------------------------
     A        348     348
   -------------------------
    Total     348     348
   -------------------------

  ==> Iterations <==

                           Total Energy        Delta E     RMS |[F,P]|

   @DF-RHF iter SAD:  -524.65046251859053   -5.24650e+02   0.00000e+00
   @DF-RHF iter   1:  -525.07881354869016   -4.28351e-01   1.58372e-03 DIIS
   @DF-RHF iter   2:  -525.25757444871738   -1.78761e-01   5.80773e-04 DIIS
   @DF-RHF iter   3:  -525.27724383918576   -1.96694e-02   1.81372e-04 DIIS
   @DF-RHF iter   4:  -525.27969338174341   -2.44954e-03   5.34014e-05 DIIS
   @DF-RHF iter   5:  -525.27987258735186   -1.79206e-04   1.06852e-05 DIIS
   @DF-RHF iter   6:  -525.27988568802220   -1.31007e-05   3.46861e-06 DIIS
   @DF-RHF iter   7:  -525.27988759283460   -1.90481e-06   9.05320e-07 DIIS
   @DF-RHF iter   8:  -525.27988774061680   -1.47782e-07   1.40514e-07 DIIS
   @DF-RHF iter   9:  -525.27988774458481   -3.96801e-09   2.87363e-08 DIIS
   @DF-RHF iter  10:  -525.27988774472351   -1.38698e-10   1.30676e-08 DIIS
   @DF-RHF iter  11:  -525.27988774473715   -1.36424e-11   3.15026e-09 DIIS
   @DF-RHF iter  12:  -525.27988774473897   -1.81899e-12   5.71187e-10 DIIS
   @DF-RHF iter  13:  -525.27988774473874    2.27374e-13   3.11831e-10 DIIS
   @DF-RHF iter  14:  -525.27988774473863    1.13687e-13   5.87102e-11 DIIS
  Energy and wave function converged.


  ==> Post-Iterations <==

    Orbital Energies [Eh]
    ---------------------

    Doubly Occupied:

       1A    -15.598194     2A    -15.598174     3A    -15.598140
       4A    -15.598121     5A    -11.274361     6A    -11.274316
       7A    -11.274307     8A    -11.274262     9A    -11.273099
      10A    -11.273090    11A    -11.273044    12A    -11.273037
      13A     -1.313469    14A     -1.313415    15A     -1.224297
      16A     -1.224243    17A     -1.076925    18A     -1.076872
      19A     -0.922785    20A     -0.922731    21A     -0.919405
      22A     -0.919351    23A     -0.760759    24A     -0.760705
      25A     -0.738524    26A     -0.738471    27A     -0.706336
      28A     -0.706282    29A     -0.647810    30A     -0.647756
      31A     -0.580833    32A     -0.580779    33A     -0.574491
      34A     -0.574437    35A     -0.497234    36A     -0.497180
      37A     -0.434409    38A     -0.434355    39A     -0.415977
      40A     -0.415923    41A     -0.360047    42A     -0.359992

    Virtual:

      43A      0.034371    44A      0.034425    45A      0.040609
      46A      0.040663    47A      0.048263    48A      0.048315
      49A      0.058468    50A      0.058520    51A      0.066990
      52A      0.067045    53A      0.099297    54A      0.099351
      55A      0.100824    56A      0.100877    57A      0.114079
      58A      0.114135    59A      0.114831    60A      0.114885
      61A      0.123655    62A      0.123707    63A      0.125201
      64A      0.125256    65A      0.128538    66A      0.128589
      67A      0.132765    68A      0.132820    69A      0.158072
      70A      0.158125    71A      0.160959    72A      0.161013
      73A      0.161204    74A      0.161256    75A      0.163793
      76A      0.163845    77A      0.175056    78A      0.175107
      79A      0.186795    80A      0.186851    81A      0.203785
      82A      0.203839    83A      0.212419    84A      0.212473
      85A      0.250397    86A      0.250451    87A      0.267637
      88A      0.267690    89A      0.277935    90A      0.277989
      91A      0.287692    92A      0.287746    93A      0.293084
      94A      0.293137    95A      0.295631    96A      0.295683
      97A      0.314710    98A      0.314762    99A      0.320335
     100A      0.320389   101A      0.355306   102A      0.355359
     103A      0.357785   104A      0.357839   105A      0.364539
     106A      0.364592   107A      0.382460   108A      0.382513
     109A      0.398767   110A      0.398821   111A      0.409773
     112A      0.409826   113A      0.425330   114A      0.425382
     115A      0.433801   116A      0.433856   117A      0.437086
     118A      0.437140   119A      0.451970   120A      0.452023
     121A      0.471361   122A      0.471415   123A      0.492016
     124A      0.492070   125A      0.504738   126A      0.504792
     127A      0.514791   128A      0.514846   129A      0.524424
     130A      0.524478   131A      0.528546   132A      0.528600
     133A      0.554455   134A      0.554508   135A      0.570412
     136A      0.570466   137A      0.587412   138A      0.587467
     139A      0.591384   140A      0.591438   141A      0.593678
     142A      0.593731   143A      0.608806   144A      0.608860
     145A      0.643396   146A      0.643449   147A      0.644197
     148A      0.644251   149A      0.685014   150A      0.685068
     151A      0.687636   152A      0.687690   153A      0.689808
     154A      0.689862   155A      0.690220   156A      0.690274
     157A      0.694705   158A      0.694758   159A      0.703707
     160A      0.703760   161A      0.746434   162A      0.746487
     163A      0.754694   164A      0.754748   165A      0.766844
     166A      0.766897   167A      0.781285   168A      0.781338
     169A      0.799691   170A      0.799745   171A      0.802587
     172A      0.802641   173A      0.818894   174A      0.818948
     175A      0.830949   176A      0.831003   177A      0.847391
     178A      0.847445   179A      0.880421   180A      0.880475
     181A      0.886287   182A      0.886341   183A      0.894560
     184A      0.894614   185A      0.929150   186A      0.929202
     187A      0.939344   188A      0.939399   189A      0.949184
     190A      0.949238   191A      0.996530   192A      0.996584
     193A      0.998787   194A      0.998840   195A      1.012894
     196A      1.012948   197A      1.033248   198A      1.033302
     199A      1.051072   200A      1.051126   201A      1.089260
     202A      1.089313   203A      1.100324   204A      1.100377
     205A      1.122076   206A      1.122130   207A      1.123922
     208A      1.123977   209A      1.134240   210A      1.134294
     211A      1.158618   212A      1.158672   213A      1.173442
     214A      1.173496   215A      1.235294   216A      1.235348
     217A      1.238682   218A      1.238735   219A      1.309551
     220A      1.309605   221A      1.331026   222A      1.331080
     223A      1.414159   224A      1.414213   225A      1.451405
     226A      1.451459   227A      1.486016   228A      1.486069
     229A      1.487953   230A      1.488007   231A      1.499088
     232A      1.499142   233A      1.502723   234A      1.502778
     235A      1.518129   236A      1.518182   237A      1.572564
     238A      1.572618   239A      1.574070   240A      1.574124
     241A      1.587714   242A      1.587768   243A      1.635859
     244A      1.635913   245A      1.640382   246A      1.640436
     247A      1.648097   248A      1.648151   249A      1.676429
     250A      1.676484   251A      1.716869   252A      1.716923
     253A      1.746475   254A      1.746529   255A      1.754981
     256A      1.755036   257A      1.783640   258A      1.783694
     259A      1.815605   260A      1.815659   261A      1.893201
     262A      1.893254   263A      1.916015   264A      1.916068
     265A      1.964706   266A      1.964760   267A      1.987553
     268A      1.987607   269A      2.031080   270A      2.031133
     271A      2.091426   272A      2.091480   273A      2.100905
     274A      2.100959   275A      2.142831   276A      2.142885
     277A      2.163233   278A      2.163287   279A      2.190365
     280A      2.190419   281A      2.193179   282A      2.193233
     283A      2.200257   284A      2.200311   285A      2.202288
     286A      2.202342   287A      2.227504   288A      2.227558
     289A      2.312638   290A      2.312692   291A      2.355106
     292A      2.355160   293A      2.430835   294A      2.430889
     295A      2.438855   296A      2.438909   297A      2.519257
     298A      2.519310   299A      2.522272   300A      2.522326
     301A      2.584645   302A      2.584699   303A      2.606144
     304A      2.606198   305A      2.665102   306A      2.665156
     307A      2.675288   308A      2.675342   309A      2.686273
     310A      2.686327   311A      2.713863   312A      2.713917
     313A      2.718469   314A      2.718522   315A      2.843893
     316A      2.843947   317A      2.865639   318A      2.865693
     319A      2.939074   320A      2.939128   321A      3.001733
     322A      3.001787   323A      3.017750   324A      3.017804
     325A      3.032065   326A      3.032118   327A      3.094014
     328A      3.094068   329A      3.220194   330A      3.220248
     331A      3.255857   332A      3.255911   333A      3.284758
     334A      3.284812   335A      3.366018   336A      3.366072
     337A      3.413244   338A      3.413298   339A      3.514798
     340A      3.514852   341A      3.590532   342A      3.590586
     343A      3.627647   344A      3.627701   345A      3.977114
     346A      3.977167   347A      4.253363   348A      4.253417

    Final Occupation by Irrep:
              A
    DOCC [    42 ]

  @DF-RHF Final Energy:  -525.27988774473863

   => Energetics <=

    Nuclear Repulsion Energy =            468.0974072395163148
    One-Electron Energy =               -1636.8987137476979115
    Two-Electron Energy =                 643.5214187634429663
    Total Energy =                       -525.2798877447386303

Computation Completed


Properties will be evaluated at   0.000000,   0.000000,   0.000000 [a0]

Properties computed using the SCF density matrix

  Nuclear Dipole Moment: [e a0]
     X:  -259.9086      Y: -1542.7781      Z:  -408.6291

  Electronic Dipole Moment: [e a0]
     X:   259.9087      Y:  1542.7783      Z:   408.6288

  Dipole Moment: [e a0]
     X:     0.0001      Y:     0.0002      Z:    -0.0003     Total:     0.0004

  Dipole Moment: [D]
     X:     0.0002      Y:     0.0006      Z:    -0.0007     Total:     0.0009


*** tstop() called on atl1-1-01-015-6-r.pace.gatech.edu at Mon Nov 29 16:10:53 2021
Module time:
	user time   =      24.01 seconds =       0.40 minutes
	system time =       0.95 seconds =       0.02 minutes
	total time  =         13 seconds =       0.22 minutes
Total time:
	user time   =      24.01 seconds =       0.40 minutes
	system time =       0.95 seconds =       0.02 minutes
	total time  =         13 seconds =       0.22 minutes

  //>>>>>>>>>>>>>>>>>>>>>>>>>>>>>>>>>>>//
  //            Monomer A HF           //
  //<<<<<<<<<<<<<<<<<<<<<<<<<<<<<<<<<<<//


*** tstart() called on atl1-1-01-015-6-r.pace.gatech.edu
*** at Mon Nov 29 16:10:53 2021

   => Loading Basis Set <=

    Name: AUG-CC-PVDZ
    Role: ORBITAL
    Keyword: BASIS
    atoms 1-2, 11-12  entry N          line   218 file /storage/home/hhive1/csargent30/data/miniconda3/envs/psi4/share/psi4/basis/aug-cc-pvdz.gbs
    atoms 3-6, 13-16  entry H          line    40 file /storage/home/hhive1/csargent30/data/miniconda3/envs/psi4/share/psi4/basis/aug-cc-pvdz.gbs
    atoms 7-10, 17-20 entry C          line   182 file /storage/home/hhive1/csargent30/data/miniconda3/envs/psi4/share/psi4/basis/aug-cc-pvdz.gbs


         ---------------------------------------------------------
                                   SCF
               by Justin Turney, Rob Parrish, Andy Simmonett
                          and Daniel G. A. Smith
                              RHF Reference
                        2 Threads,   6675 MiB Core
         ---------------------------------------------------------

  ==> Geometry <==

    Molecular point group: c1
    Full point group: C1

    Geometry (in Bohr), charge = 0, multiplicity = 1:

       Center              X                  Y                   Z               Mass
    ------------   -----------------  -----------------  -----------------  -----------------
         N           -1.330847580000     0.980326580000     0.426270370000    14.003074004430
         N            3.953773330000     0.980326580000     0.426270370000    14.003074004430
         H            3.567136740000     4.352185690000    -0.942309730000     1.007825032230
         H           -0.944210980000     4.352185690000    -0.942309730000     1.007825032230
         H           -0.944210980000    -2.391532530000     1.794850470000     1.007825032230
         H            3.567136740000    -2.391532530000     1.794850470000     1.007825032230
         C            2.622925760000     2.940979740000    -0.426270370000    12.000000000000
         C            0.000000000000     2.940979740000    -0.426270370000    12.000000000000
         C            0.000000000000    -0.980326580000     1.278811120000    12.000000000000
         C            2.622925760000    -0.980326580000     1.278811120000    12.000000000000
      Gh(N)         -10.142073580000   -37.713138650000   -10.155534520000    14.003074004430
      Gh(N)          -4.857452670000   -37.713138650000   -10.155534520000    14.003074004430
      Gh(H)          -9.755436980000   -41.084997760000   -11.524114620000     1.007825032230
      Gh(H)          -9.755436980000   -34.341279530000    -8.786954420000     1.007825032230
      Gh(H)          -5.244089270000   -41.084997760000   -11.524114620000     1.007825032230
      Gh(H)          -5.244089270000   -34.341279530000    -8.786954420000     1.007825032230
      Gh(C)          -8.811226010000   -39.673791810000   -11.008075270000    12.000000000000
      Gh(C)          -8.811226010000   -35.752485490000    -9.302993780000    12.000000000000
      Gh(C)          -6.188300250000   -39.673791810000   -11.008075270000    12.000000000000
      Gh(C)          -6.188300250000   -35.752485490000    -9.302993780000    12.000000000000

  Running in c1 symmetry.

  Rotational constants: A =      0.07541  B =      0.00047  C =      0.00047 [cm^-1]
  Rotational constants: A =   2260.65262  B =     14.17972  C =     14.11568 [MHz]
  Nuclear repulsion =  212.551731110485349

  Charge       = 0
  Multiplicity = 1
  Electrons    = 42
  Nalpha       = 21
  Nbeta        = 21

  ==> Algorithm <==

  SCF Algorithm Type is DF.
  DIIS enabled.
  MOM disabled.
  Fractional occupation disabled.
  Guess Type is SAD.
  Energy threshold   = 1.00e-10
  Density threshold  = 1.00e-10
  Integral threshold = 1.00e-12

  ==> Primary Basis <==

  Basis Set: AUG-CC-PVDZ
    Blend: AUG-CC-PVDZ
    Number of shells: 148
    Number of basis functions: 348
    Number of Cartesian functions: 372
    Spherical Harmonics?: true
    Max angular momentum: 2

   => Loading Basis Set <=

    Name: (AUG-CC-PVDZ AUX)
    Role: JKFIT
    Keyword: DF_BASIS_SCF
    atoms 1-2, 11-12  entry N          line   212 file /storage/home/hhive1/csargent30/data/miniconda3/envs/psi4/share/psi4/basis/aug-cc-pvdz-jkfit.gbs
    atoms 3-6, 13-16  entry H          line    70 file /storage/home/hhive1/csargent30/data/miniconda3/envs/psi4/share/psi4/basis/aug-cc-pvdz-jkfit.gbs
    atoms 7-10, 17-20 entry C          line   154 file /storage/home/hhive1/csargent30/data/miniconda3/envs/psi4/share/psi4/basis/aug-cc-pvdz-jkfit.gbs

  ==> Integral Setup <==

  ==> DiskDFJK: Density-Fitted J/K Matrices <==

    J tasked:                  Yes
    K tasked:                  Yes
    wK tasked:                  No
    OpenMP threads:              2
    Integrals threads:           2
    Memory [MiB]:             5006
    Algorithm:                Core
    Integral Cache:           LOAD
    Schwarz Cutoff:          1E-12
    Fitting Condition:       1E-10

   => Auxiliary Basis Set <=

  Basis Set: (AUG-CC-PVDZ AUX)
    Blend: AUG-CC-PVDZ-JKFIT
    Number of shells: 432
    Number of basis functions: 1288
    Number of Cartesian functions: 1492
    Spherical Harmonics?: true
    Max angular momentum: 3

  Minimum eigenvalue in the overlap matrix is 9.4898579957E-06.
  Reciprocal condition number of the overlap matrix is 7.4017781066E-07.
    Using symmetric orthogonalization.

  ==> Pre-Iterations <==

  SCF Guess: Superposition of Atomic Densities via on-the-fly atomic UHF (no occupation information).

   -------------------------
    Irrep   Nso     Nmo
   -------------------------
     A        348     348
   -------------------------
    Total     348     348
   -------------------------

  ==> Iterations <==

                           Total Energy        Delta E     RMS |[F,P]|

   @DF-RHF iter SAD:  -262.32523126013314   -2.62325e+02   0.00000e+00
   @DF-RHF iter   1:  -262.53940798434672   -2.14177e-01   1.11985e-03 DIIS
   @DF-RHF iter   2:  -262.62878837675191   -8.93804e-02   4.10664e-04 DIIS
   @DF-RHF iter   3:  -262.63862292130017   -9.83454e-03   1.28248e-04 DIIS
   @DF-RHF iter   4:  -262.63984767457293   -1.22475e-03   3.77599e-05 DIIS
   @DF-RHF iter   5:  -262.63993727503430   -8.96005e-05   7.55558e-06 DIIS
   @DF-RHF iter   6:  -262.63994382529467   -6.55026e-06   2.45264e-06 DIIS
   @DF-RHF iter   7:  -262.63994477766721   -9.52373e-07   6.40130e-07 DIIS
   @DF-RHF iter   8:  -262.63994485155553   -7.38883e-08   9.91693e-08 DIIS
   @DF-RHF iter   9:  -262.63994485354158   -1.98605e-09   1.88228e-08 DIIS
   @DF-RHF iter  10:  -262.63994485361229   -7.07132e-11   3.19151e-09 DIIS
   @DF-RHF iter  11:  -262.63994485361400   -1.70530e-12   5.22317e-10 DIIS
   @DF-RHF iter  12:  -262.63994485361445   -4.54747e-13   9.54345e-11 DIIS
  Energy and wave function converged.


  ==> Post-Iterations <==

    Orbital Energies [Eh]
    ---------------------

    Doubly Occupied:

       1A    -15.598072     2A    -15.598053     3A    -11.274239
       4A    -11.274194     5A    -11.272975     6A    -11.272969
       7A     -1.313347     8A     -1.224176     9A     -1.076803
      10A     -0.922662    11A     -0.919282    12A     -0.760637
      13A     -0.738402    14A     -0.706214    15A     -0.647687
      16A     -0.580711    17A     -0.574369    18A     -0.497113
      19A     -0.434288    20A     -0.415855    21A     -0.359924

    Virtual:

      22A      0.022290    23A      0.034497    24A      0.039358
      25A      0.040739    26A      0.041038    27A      0.048384
      28A      0.058591    29A      0.058704    30A      0.067113
      31A      0.079540    32A      0.084899    33A      0.099419
      34A      0.100948    35A      0.103848    36A      0.108372
      37A      0.108711    38A      0.114201    39A      0.114951
      40A      0.122354    41A      0.123776    42A      0.125322
      43A      0.125439    44A      0.128661    45A      0.130802
      46A      0.132889    47A      0.134002    48A      0.151958
      49A      0.152884    50A      0.158199    51A      0.159201
      52A      0.161084    53A      0.161326    54A      0.163914
      55A      0.175179    56A      0.176597    57A      0.186918
      58A      0.197658    59A      0.203759    60A      0.203908
      61A      0.206518    62A      0.212538    63A      0.222236
      64A      0.233469    65A      0.239295    66A      0.250517
      67A      0.255078    68A      0.267756    69A      0.270633
      70A      0.278056    71A      0.287812    72A      0.293207
      73A      0.295749    74A      0.302175    75A      0.314832
      76A      0.320457    77A      0.320494    78A      0.328013
      79A      0.331157    80A      0.343976    81A      0.355428
      82A      0.357908    83A      0.364661    84A      0.380353
      85A      0.382583    86A      0.385491    87A      0.398891
      88A      0.401128    89A      0.409895    90A      0.419126
      91A      0.424804    92A      0.425453    93A      0.433925
      94A      0.437212    95A      0.441787    96A      0.452092
      97A      0.460511    98A      0.460958    99A      0.471483
     100A      0.475940   101A      0.478673   102A      0.492140
     103A      0.504862   104A      0.507674   105A      0.514914
     106A      0.523620   107A      0.524547   108A      0.528668
     109A      0.535585   110A      0.554577   111A      0.557699
     112A      0.561368   113A      0.564349   114A      0.570535
     115A      0.581758   116A      0.587535   117A      0.591506
     118A      0.593799   119A      0.595863   120A      0.608929
     121A      0.614996   122A      0.620016   123A      0.636220
     124A      0.643517   125A      0.644321   126A      0.649209
     127A      0.651345   128A      0.679267   129A      0.685136
     130A      0.685169   131A      0.687758   132A      0.689932
     133A      0.690342   134A      0.694828   135A      0.703829
     136A      0.719741   137A      0.728247   138A      0.746558
     139A      0.746643   140A      0.754817   141A      0.766965
     142A      0.775536   143A      0.781406   144A      0.793485
     145A      0.799815   146A      0.802710   147A      0.810948
     148A      0.811831   149A      0.819016   150A      0.824607
     151A      0.831071   152A      0.847513   153A      0.847918
     154A      0.849039   155A      0.868460   156A      0.880544
     157A      0.886410   158A      0.888003   159A      0.894682
     160A      0.905959   161A      0.928966   162A      0.929272
     163A      0.939466   164A      0.947546   165A      0.949307
     166A      0.970634   167A      0.976790   168A      0.986492
     169A      0.996652   170A      0.998908   171A      1.013015
     172A      1.032273   173A      1.033370   174A      1.046784
     175A      1.051194   176A      1.076118   177A      1.089381
     178A      1.090133   179A      1.100445   180A      1.122199
     181A      1.124044   182A      1.130517   183A      1.134362
     184A      1.140120   185A      1.158740   186A      1.168443
     187A      1.170531   188A      1.173565   189A      1.192063
     190A      1.193096   191A      1.200329   192A      1.222170
     193A      1.235416   194A      1.238804   195A      1.250883
     196A      1.307412   197A      1.309674   198A      1.318117
     199A      1.326268   200A      1.329467   201A      1.331148
     202A      1.346663   203A      1.389068   204A      1.414282
     205A      1.448244   206A      1.451526   207A      1.455315
     208A      1.478988   209A      1.486137   210A      1.487060
     211A      1.488075   212A      1.499211   213A      1.502846
     214A      1.518252   215A      1.572686   216A      1.574192
     217A      1.587836   218A      1.635982   219A      1.640505
     220A      1.648219   221A      1.659096   222A      1.676552
     223A      1.697922   224A      1.716991   225A      1.746597
     226A      1.755104   227A      1.783762   228A      1.815727
     229A      1.893323   230A      1.916137   231A      1.964829
     232A      1.987674   233A      2.031202   234A      2.070083
     235A      2.091548   236A      2.101028   237A      2.102621
     238A      2.119300   239A      2.142953   240A      2.156532
     241A      2.159046   242A      2.163355   243A      2.190488
     244A      2.193301   245A      2.194717   246A      2.200380
     247A      2.202410   248A      2.227626   249A      2.234632
     250A      2.241059   251A      2.249516   252A      2.309871
     253A      2.312761   254A      2.319404   255A      2.355229
     256A      2.384662   257A      2.419066   258A      2.430957
     259A      2.435269   260A      2.438022   261A      2.438977
     262A      2.472533   263A      2.486580   264A      2.498177
     265A      2.519379   266A      2.522395   267A      2.524924
     268A      2.545852   269A      2.568184   270A      2.584766
     271A      2.592229   272A      2.606266   273A      2.625829
     274A      2.665224   275A      2.675409   276A      2.686395
     277A      2.713985   278A      2.716754   279A      2.718591
     280A      2.726509   281A      2.767792   282A      2.844014
     283A      2.865761   284A      2.903893   285A      2.939196
     286A      2.947084   287A      2.955609   288A      2.973199
     289A      3.001855   290A      3.017872   291A      3.032186
     292A      3.058188   293A      3.065086   294A      3.094137
     295A      3.113725   296A      3.220316   297A      3.245586
     298A      3.255980   299A      3.284880   300A      3.289540
     301A      3.321819   302A      3.337600   303A      3.340345
     304A      3.348517   305A      3.351241   306A      3.366140
     307A      3.412488   308A      3.413367   309A      3.470643
     310A      3.501844   311A      3.514920   312A      3.521254
     313A      3.590655   314A      3.604327   315A      3.605535
     316A      3.627769   317A      3.700375   318A      3.818814
     319A      3.830578   320A      3.940859   321A      3.968985
     322A      3.977236   323A      4.011292   324A      4.194648
     325A      4.242140   326A      4.253485   327A      4.441878
     328A      4.546719   329A      4.579167   330A      4.867530
     331A      4.976033   332A      5.057742   333A      5.261601
     334A      5.316429   335A      5.630088   336A      5.691214
     337A      5.827038   338A      5.952522   339A      6.283718
     340A      6.306779   341A      6.453655   342A      6.631090
     343A     18.125607   344A     18.207869   345A     19.017464
     346A     19.342889   347A     25.286952   348A     25.374672

    Final Occupation by Irrep:
              A
    DOCC [    21 ]

  @DF-RHF Final Energy:  -262.63994485361445

   => Energetics <=

    Nuclear Repulsion Energy =            212.5517311104853491
    One-Electron Energy =                -775.4594096422802068
    Two-Electron Energy =                 300.2677336781804343
    Total Energy =                       -262.6399448536144519

Computation Completed


Properties will be evaluated at   0.000000,   0.000000,   0.000000 [a0]

Properties computed using the SCF density matrix

  Nuclear Dipole Moment: [e a0]
     X:    55.0814      Y:    41.1737      Z:    17.9034

  Electronic Dipole Moment: [e a0]
     X:   -55.0814      Y:   -41.1737      Z:   -17.9034

  Dipole Moment: [e a0]
     X:    -0.0000      Y:     0.0000      Z:    -0.0000     Total:     0.0000

  Dipole Moment: [D]
     X:    -0.0000      Y:     0.0000      Z:    -0.0000     Total:     0.0000


*** tstop() called on atl1-1-01-015-6-r.pace.gatech.edu at Mon Nov 29 16:11:01 2021
Module time:
	user time   =      14.45 seconds =       0.24 minutes
	system time =       0.49 seconds =       0.01 minutes
	total time  =          8 seconds =       0.13 minutes
Total time:
	user time   =      38.47 seconds =       0.64 minutes
	system time =       1.44 seconds =       0.02 minutes
	total time  =         21 seconds =       0.35 minutes

  //>>>>>>>>>>>>>>>>>>>>>>>>>>>>>>>>>>>//
  //            Monomer B HF           //
  //<<<<<<<<<<<<<<<<<<<<<<<<<<<<<<<<<<<//


*** tstart() called on atl1-1-01-015-6-r.pace.gatech.edu
*** at Mon Nov 29 16:11:01 2021

   => Loading Basis Set <=

    Name: AUG-CC-PVDZ
    Role: ORBITAL
    Keyword: BASIS
    atoms 1-2, 11-12  entry N          line   218 file /storage/home/hhive1/csargent30/data/miniconda3/envs/psi4/share/psi4/basis/aug-cc-pvdz.gbs
    atoms 3-6, 13-16  entry H          line    40 file /storage/home/hhive1/csargent30/data/miniconda3/envs/psi4/share/psi4/basis/aug-cc-pvdz.gbs
    atoms 7-10, 17-20 entry C          line   182 file /storage/home/hhive1/csargent30/data/miniconda3/envs/psi4/share/psi4/basis/aug-cc-pvdz.gbs


         ---------------------------------------------------------
                                   SCF
               by Justin Turney, Rob Parrish, Andy Simmonett
                          and Daniel G. A. Smith
                              RHF Reference
                        2 Threads,   6675 MiB Core
         ---------------------------------------------------------

  ==> Geometry <==

    Molecular point group: c1
    Full point group: C1

    Geometry (in Bohr), charge = 0, multiplicity = 1:

       Center              X                  Y                   Z               Mass
    ------------   -----------------  -----------------  -----------------  -----------------
      Gh(N)          -1.330847580000     0.980326580000     0.426270370000    14.003074004430
      Gh(N)           3.953773330000     0.980326580000     0.426270370000    14.003074004430
      Gh(H)           3.567136740000     4.352185690000    -0.942309730000     1.007825032230
      Gh(H)          -0.944210980000     4.352185690000    -0.942309730000     1.007825032230
      Gh(H)          -0.944210980000    -2.391532530000     1.794850470000     1.007825032230
      Gh(H)           3.567136740000    -2.391532530000     1.794850470000     1.007825032230
      Gh(C)           2.622925760000     2.940979740000    -0.426270370000    12.000000000000
      Gh(C)           0.000000000000     2.940979740000    -0.426270370000    12.000000000000
      Gh(C)           0.000000000000    -0.980326580000     1.278811120000    12.000000000000
      Gh(C)           2.622925760000    -0.980326580000     1.278811120000    12.000000000000
         N          -10.142073580000   -37.713138650000   -10.155534520000    14.003074004430
         N           -4.857452670000   -37.713138650000   -10.155534520000    14.003074004430
         H           -9.755436980000   -41.084997760000   -11.524114620000     1.007825032230
         H           -9.755436980000   -34.341279530000    -8.786954420000     1.007825032230
         H           -5.244089270000   -41.084997760000   -11.524114620000     1.007825032230
         H           -5.244089270000   -34.341279530000    -8.786954420000     1.007825032230
         C           -8.811226010000   -39.673791810000   -11.008075270000    12.000000000000
         C           -8.811226010000   -35.752485490000    -9.302993780000    12.000000000000
         C           -6.188300250000   -39.673791810000   -11.008075270000    12.000000000000
         C           -6.188300250000   -35.752485490000    -9.302993780000    12.000000000000

  Running in c1 symmetry.

  Rotational constants: A =      0.07541  B =      0.00047  C =      0.00047 [cm^-1]
  Rotational constants: A =   2260.65262  B =     14.17972  C =     14.11568 [MHz]
  Nuclear repulsion =  212.551731092382141

  Charge       = 0
  Multiplicity = 1
  Electrons    = 42
  Nalpha       = 21
  Nbeta        = 21

  ==> Algorithm <==

  SCF Algorithm Type is DF.
  DIIS enabled.
  MOM disabled.
  Fractional occupation disabled.
  Guess Type is SAD.
  Energy threshold   = 1.00e-10
  Density threshold  = 1.00e-10
  Integral threshold = 1.00e-12

  ==> Primary Basis <==

  Basis Set: AUG-CC-PVDZ
    Blend: AUG-CC-PVDZ
    Number of shells: 148
    Number of basis functions: 348
    Number of Cartesian functions: 372
    Spherical Harmonics?: true
    Max angular momentum: 2

   => Loading Basis Set <=

    Name: (AUG-CC-PVDZ AUX)
    Role: JKFIT
    Keyword: DF_BASIS_SCF
    atoms 1-2, 11-12  entry N          line   212 file /storage/home/hhive1/csargent30/data/miniconda3/envs/psi4/share/psi4/basis/aug-cc-pvdz-jkfit.gbs
    atoms 3-6, 13-16  entry H          line    70 file /storage/home/hhive1/csargent30/data/miniconda3/envs/psi4/share/psi4/basis/aug-cc-pvdz-jkfit.gbs
    atoms 7-10, 17-20 entry C          line   154 file /storage/home/hhive1/csargent30/data/miniconda3/envs/psi4/share/psi4/basis/aug-cc-pvdz-jkfit.gbs

  ==> Integral Setup <==

  ==> DiskDFJK: Density-Fitted J/K Matrices <==

    J tasked:                  Yes
    K tasked:                  Yes
    wK tasked:                  No
    OpenMP threads:              2
    Integrals threads:           2
    Memory [MiB]:             5006
    Algorithm:                Core
    Integral Cache:           LOAD
    Schwarz Cutoff:          1E-12
    Fitting Condition:       1E-10

   => Auxiliary Basis Set <=

  Basis Set: (AUG-CC-PVDZ AUX)
    Blend: AUG-CC-PVDZ-JKFIT
    Number of shells: 432
    Number of basis functions: 1288
    Number of Cartesian functions: 1492
    Spherical Harmonics?: true
    Max angular momentum: 3

  Minimum eigenvalue in the overlap matrix is 9.4898579957E-06.
  Reciprocal condition number of the overlap matrix is 7.4017781066E-07.
    Using symmetric orthogonalization.

  ==> Pre-Iterations <==

  SCF Guess: Superposition of Atomic Densities via on-the-fly atomic UHF (no occupation information).

   -------------------------
    Irrep   Nso     Nmo
   -------------------------
     A        348     348
   -------------------------
    Total     348     348
   -------------------------

  ==> Iterations <==

                           Total Energy        Delta E     RMS |[F,P]|

   @DF-RHF iter SAD:  -262.32523125777021   -2.62325e+02   0.00000e+00
   @DF-RHF iter   1:  -262.53940798260430   -2.14177e-01   1.11985e-03 DIIS
   @DF-RHF iter   2:  -262.62878837505821   -8.93804e-02   4.10664e-04 DIIS
   @DF-RHF iter   3:  -262.63862291961300   -9.83454e-03   1.28248e-04 DIIS
   @DF-RHF iter   4:  -262.63984767288258   -1.22475e-03   3.77599e-05 DIIS
   @DF-RHF iter   5:  -262.63993727334349   -8.96005e-05   7.55558e-06 DIIS
   @DF-RHF iter   6:  -262.63994382360409   -6.55026e-06   2.45264e-06 DIIS
   @DF-RHF iter   7:  -262.63994477597720   -9.52373e-07   6.40130e-07 DIIS
   @DF-RHF iter   8:  -262.63994484986517   -7.38880e-08   9.91693e-08 DIIS
   @DF-RHF iter   9:  -262.63994485185066   -1.98548e-09   1.88228e-08 DIIS
   @DF-RHF iter  10:  -262.63994485192222   -7.15659e-11   3.19151e-09 DIIS
   @DF-RHF iter  11:  -262.63994485192393   -1.70530e-12   5.22317e-10 DIIS
   @DF-RHF iter  12:  -262.63994485192376    1.70530e-13   9.54334e-11 DIIS
  Energy and wave function converged.


  ==> Post-Iterations <==

    Orbital Energies [Eh]
    ---------------------

    Doubly Occupied:

       1A    -15.598072     2A    -15.598053     3A    -11.274239
       4A    -11.274194     5A    -11.272975     6A    -11.272969
       7A     -1.313347     8A     -1.224176     9A     -1.076803
      10A     -0.922662    11A     -0.919282    12A     -0.760637
      13A     -0.738402    14A     -0.706214    15A     -0.647687
      16A     -0.580711    17A     -0.574369    18A     -0.497113
      19A     -0.434288    20A     -0.415855    21A     -0.359924

    Virtual:

      22A      0.022236    23A      0.034497    24A      0.039305
      25A      0.040738    26A      0.040986    27A      0.048384
      28A      0.058591    29A      0.058652    30A      0.067113
      31A      0.079484    32A      0.084846    33A      0.099419
      34A      0.100948    35A      0.103795    36A      0.108317
      37A      0.108658    38A      0.114201    39A      0.114951
      40A      0.122298    41A      0.123776    42A      0.125322
      43A      0.125386    44A      0.128661    45A      0.130747
      46A      0.132889    47A      0.133950    48A      0.151906
      49A      0.152832    50A      0.158199    51A      0.159146
      52A      0.161084    53A      0.161326    54A      0.163914
      55A      0.175179    56A      0.176546    57A      0.186918
      58A      0.197605    59A      0.203703    60A      0.203908
      61A      0.206466    62A      0.212538    63A      0.222182
      64A      0.233416    65A      0.239242    66A      0.250517
      67A      0.255024    68A      0.267756    69A      0.270581
      70A      0.278057    71A      0.287812    72A      0.293207
      73A      0.295749    74A      0.302121    75A      0.314832
      76A      0.320441    77A      0.320457    78A      0.327959
      79A      0.331103    80A      0.343923    81A      0.355428
      82A      0.357908    83A      0.364661    84A      0.380300
      85A      0.382583    86A      0.385436    87A      0.398891
      88A      0.401074    89A      0.409895    90A      0.419072
      91A      0.424749    92A      0.425453    93A      0.433925
      94A      0.437212    95A      0.441734    96A      0.452092
      97A      0.460457    98A      0.460904    99A      0.471483
     100A      0.475886   101A      0.478620   102A      0.492140
     103A      0.504862   104A      0.507621   105A      0.514914
     106A      0.523567   107A      0.524547   108A      0.528668
     109A      0.535532   110A      0.554577   111A      0.557645
     112A      0.561313   113A      0.564295   114A      0.570535
     115A      0.581705   116A      0.587535   117A      0.591506
     118A      0.593799   119A      0.595811   120A      0.608929
     121A      0.614942   122A      0.619960   123A      0.636166
     124A      0.643517   125A      0.644321   126A      0.649155
     127A      0.651291   128A      0.679213   129A      0.685116
     130A      0.685136   131A      0.687758   132A      0.689932
     133A      0.690342   134A      0.694828   135A      0.703829
     136A      0.719688   137A      0.728192   138A      0.746558
     139A      0.746588   140A      0.754817   141A      0.766965
     142A      0.775482   143A      0.781406   144A      0.793432
     145A      0.799815   146A      0.802710   147A      0.810894
     148A      0.811778   149A      0.819016   150A      0.824553
     151A      0.831071   152A      0.847513   153A      0.847863
     154A      0.848985   155A      0.868406   156A      0.880544
     157A      0.886410   158A      0.887950   159A      0.894682
     160A      0.905904   161A      0.928913   162A      0.929272
     163A      0.939466   164A      0.947492   165A      0.949307
     166A      0.970580   167A      0.976736   168A      0.986438
     169A      0.996652   170A      0.998908   171A      1.013015
     172A      1.032219   173A      1.033370   174A      1.046730
     175A      1.051194   176A      1.076065   177A      1.089381
     178A      1.090079   179A      1.100445   180A      1.122199
     181A      1.124044   182A      1.130463   183A      1.134362
     184A      1.140066   185A      1.158740   186A      1.168389
     187A      1.170478   188A      1.173565   189A      1.192009
     190A      1.193042   191A      1.200274   192A      1.222117
     193A      1.235416   194A      1.238804   195A      1.250830
     196A      1.307358   197A      1.309674   198A      1.318063
     199A      1.326214   200A      1.329413   201A      1.331148
     202A      1.346609   203A      1.389014   204A      1.414282
     205A      1.448191   206A      1.451526   207A      1.455261
     208A      1.478935   209A      1.486137   210A      1.487006
     211A      1.488075   212A      1.499211   213A      1.502846
     214A      1.518252   215A      1.572686   216A      1.574192
     217A      1.587836   218A      1.635982   219A      1.640505
     220A      1.648219   221A      1.659042   222A      1.676552
     223A      1.697868   224A      1.716991   225A      1.746597
     226A      1.755104   227A      1.783762   228A      1.815727
     229A      1.893323   230A      1.916137   231A      1.964829
     232A      1.987674   233A      2.031202   234A      2.070029
     235A      2.091548   236A      2.101028   237A      2.102567
     238A      2.119246   239A      2.142953   240A      2.156478
     241A      2.158992   242A      2.163355   243A      2.190488
     244A      2.193301   245A      2.194663   246A      2.200380
     247A      2.202410   248A      2.227626   249A      2.234577
     250A      2.241005   251A      2.249462   252A      2.309817
     253A      2.312761   254A      2.319350   255A      2.355229
     256A      2.384608   257A      2.419012   258A      2.430957
     259A      2.435215   260A      2.437968   261A      2.438977
     262A      2.472479   263A      2.486527   264A      2.498123
     265A      2.519379   266A      2.522395   267A      2.524870
     268A      2.545798   269A      2.568130   270A      2.584766
     271A      2.592175   272A      2.606266   273A      2.625775
     274A      2.665224   275A      2.675409   276A      2.686395
     277A      2.713985   278A      2.716700   279A      2.718591
     280A      2.726455   281A      2.767738   282A      2.844014
     283A      2.865761   284A      2.903839   285A      2.939196
     286A      2.947030   287A      2.955554   288A      2.973145
     289A      3.001855   290A      3.017872   291A      3.032186
     292A      3.058134   293A      3.065032   294A      3.094137
     295A      3.113672   296A      3.220316   297A      3.245532
     298A      3.255980   299A      3.284880   300A      3.289486
     301A      3.321765   302A      3.337546   303A      3.340291
     304A      3.348463   305A      3.351187   306A      3.366140
     307A      3.412435   308A      3.413367   309A      3.470589
     310A      3.501789   311A      3.514920   312A      3.521199
     313A      3.590655   314A      3.604273   315A      3.605481
     316A      3.627769   317A      3.700321   318A      3.818760
     319A      3.830524   320A      3.940805   321A      3.968931
     322A      3.977236   323A      4.011238   324A      4.194594
     325A      4.242086   326A      4.253485   327A      4.441824
     328A      4.546665   329A      4.579113   330A      4.867476
     331A      4.975979   332A      5.057688   333A      5.261547
     334A      5.316375   335A      5.630034   336A      5.691160
     337A      5.826984   338A      5.952468   339A      6.283664
     340A      6.306725   341A      6.453601   342A      6.631036
     343A     18.125553   344A     18.207815   345A     19.017410
     346A     19.342835   347A     25.286898   348A     25.374618

    Final Occupation by Irrep:
              A
    DOCC [    21 ]

  @DF-RHF Final Energy:  -262.63994485192376

   => Energetics <=

    Nuclear Repulsion Energy =            212.5517310923821412
    One-Electron Energy =                -775.4594096043429090
    Two-Electron Energy =                 300.2677336600369813
    Total Energy =                       -262.6399448519237581

Computation Completed


Properties will be evaluated at   0.000000,   0.000000,   0.000000 [a0]

Properties computed using the SCF density matrix

  Nuclear Dipole Moment: [e a0]
     X:  -314.9901      Y: -1583.9518      Z:  -426.5324

  Electronic Dipole Moment: [e a0]
     X:   314.9901      Y:  1583.9518      Z:   426.5324

  Dipole Moment: [e a0]
     X:     0.0000      Y:    -0.0000      Z:    -0.0000     Total:     0.0000

  Dipole Moment: [D]
     X:     0.0000      Y:    -0.0000      Z:    -0.0000     Total:     0.0000


*** tstop() called on atl1-1-01-015-6-r.pace.gatech.edu at Mon Nov 29 16:11:09 2021
Module time:
	user time   =      14.49 seconds =       0.24 minutes
	system time =       0.47 seconds =       0.01 minutes
	total time  =          8 seconds =       0.13 minutes
Total time:
	user time   =      52.97 seconds =       0.88 minutes
	system time =       1.91 seconds =       0.03 minutes
	total time  =         29 seconds =       0.48 minutes
  Constructing Basis Sets for SAPT...

   => Loading Basis Set <=

    Name: (AUG-CC-PVDZ AUX)
    Role: RIFIT
    Keyword: DF_BASIS_SAPT
    atoms 1-2, 11-12  entry N          line   158 file /storage/home/hhive1/csargent30/data/miniconda3/envs/psi4/share/psi4/basis/aug-cc-pvdz-ri.gbs
    atoms 3-6, 13-16  entry H          line    30 file /storage/home/hhive1/csargent30/data/miniconda3/envs/psi4/share/psi4/basis/aug-cc-pvdz-ri.gbs
    atoms 7-10, 17-20 entry C          line   112 file /storage/home/hhive1/csargent30/data/miniconda3/envs/psi4/share/psi4/basis/aug-cc-pvdz-ri.gbs


  //>>>>>>>>>>>>>>>>>>>>>>>>>>>>>>>>>>>//
  //               SAPT0               //
  //<<<<<<<<<<<<<<<<<<<<<<<<<<<<<<<<<<<//


*** tstart() called on atl1-1-01-015-6-r.pace.gatech.edu
*** at Mon Nov 29 16:11:10 2021

        SAPT0
    Ed Hohenstein
     6 June 2009

      Orbital Information
  --------------------------
    NSO        =       348
    NMO        =       348
    NRI        =      1048
    NOCC A     =        21
    NOCC B     =        21
    FOCC A     =         6
    FOCC B     =         6
    NVIR A     =       327
    NVIR B     =       327

    Elst10,r            =     0.000001964839 [Eh]
    Exch10              =     0.000000000000 [Eh]
    Exch10 (S^2)        =     0.000000000000 [Eh]

    Iter     Energy [mEh]          dE [mEh]         Residual      Time [s]
       1      -0.00000255       0.000002553       0.017991854             0
       2      -0.00000228      -0.000000271       0.003968013             1
       3      -0.00000250       0.000000217       0.001753219             1
       4      -0.00000254       0.000000040       0.000717914             2
       5      -0.00000253      -0.000000009       0.000445657             2
       6      -0.00000252      -0.000000006       0.000131868             2
       7      -0.00000252       0.000000001       0.000043388             3
       8      -0.00000253       0.000000000       0.000012775             3
       9      -0.00000253      -0.000000000       0.000004374             3
      10      -0.00000253      -0.000000000       0.000001343             4
      11      -0.00000253       0.000000000       0.000000730             4

    CHF Iterations converged


    Iter     Energy [mEh]          dE [mEh]         Residual      Time [s]
       1      -0.00000127       0.000001272       0.012787874             0
       2      -0.00000114      -0.000000136       0.002807677             1
       3      -0.00000125       0.000000112       0.001229455             1
       4      -0.00000127       0.000000019       0.000532512             2
       5      -0.00000126      -0.000000005       0.000323680             2
       6      -0.00000126      -0.000000003       0.000095443             2
       7      -0.00000126       0.000000001       0.000031338             3
       8      -0.00000126       0.000000000       0.000009546             3
       9      -0.00000126      -0.000000000       0.000003237             3
      10      -0.00000126      -0.000000000       0.000001080             4
      11      -0.00000126       0.000000000       0.000000579             4

    CHF Iterations converged

    Ind20,r (A<-B)      =    -0.000000002525 [Eh]
    Ind20,r (B<-A)      =    -0.000000001260 [Eh]
    Ind20,r             =    -0.000000003785 [Eh]
    Exch-Ind20,r (A<-B) =     0.000000000000 [Eh]
    Exch-Ind20,r (B<-A) =     0.000000000000 [Eh]
    Exch-Ind20,r        =     0.000000000000 [Eh]
    Disp20              =    -0.000000391621 [Eh]
    Disp20 (SS)         =    -0.000000195811 [Eh]
    Disp20 (OS)         =    -0.000000195811 [Eh]
    Exch-Disp20         =     0.000000000000 [Eh]
    Exch-Disp20 (SS)    =     0.000000000000 [Eh]
    Exch-Disp20 (OS)    =     0.000000000000 [Eh]

    SAPT Results
  --------------------------------------------------------------------------------------------------------
    Electrostatics                  0.00196484 [mEh]       0.00123295 [kcal/mol]       0.00515868 [kJ/mol]
      Elst10,r                      0.00196484 [mEh]       0.00123295 [kcal/mol]       0.00515868 [kJ/mol]

    Exchange                        0.00000000 [mEh]       0.00000000 [kcal/mol]       0.00000000 [kJ/mol]
      Exch10                        0.00000000 [mEh]       0.00000000 [kcal/mol]       0.00000000 [kJ/mol]
      Exch10(S^2)                   0.00000000 [mEh]       0.00000000 [kcal/mol]       0.00000000 [kJ/mol]

    Induction                      -0.00000404 [mEh]      -0.00000253 [kcal/mol]      -0.00001060 [kJ/mol]
      Ind20,r                      -0.00000379 [mEh]      -0.00000238 [kcal/mol]      -0.00000994 [kJ/mol]
      Exch-Ind20,r                  0.00000000 [mEh]       0.00000000 [kcal/mol]       0.00000000 [kJ/mol]
      delta HF,r (2)               -0.00000025 [mEh]      -0.00000016 [kcal/mol]      -0.00000067 [kJ/mol]

    Dispersion                     -0.00039162 [mEh]      -0.00024575 [kcal/mol]      -0.00102820 [kJ/mol]
      Disp20                       -0.00039162 [mEh]      -0.00024575 [kcal/mol]      -0.00102820 [kJ/mol]
      Exch-Disp20                   0.00000000 [mEh]       0.00000000 [kcal/mol]       0.00000000 [kJ/mol]
      Disp20 (SS)                  -0.00019581 [mEh]      -0.00012287 [kcal/mol]      -0.00051410 [kJ/mol]
      Disp20 (OS)                  -0.00019581 [mEh]      -0.00012287 [kcal/mol]      -0.00051410 [kJ/mol]
      Exch-Disp20 (SS)              0.00000000 [mEh]       0.00000000 [kcal/mol]       0.00000000 [kJ/mol]
      Exch-Disp20 (OS)              0.00000000 [mEh]       0.00000000 [kcal/mol]       0.00000000 [kJ/mol]

  Total HF                          0.00196080 [mEh]       0.00123042 [kcal/mol]       0.00514808 [kJ/mol]
  Total SAPT0                       0.00156918 [mEh]       0.00098467 [kcal/mol]       0.00411988 [kJ/mol]

  Special recipe for scaled SAPT0 (see Manual):
    Electrostatics sSAPT0           0.00196484 [mEh]       0.00123295 [kcal/mol]       0.00515868 [kJ/mol]
    Exchange sSAPT0                 0.00000000 [mEh]       0.00000000 [kcal/mol]       0.00000000 [kJ/mol]
    Induction sSAPT0               -0.00000404 [mEh]      -0.00000253 [kcal/mol]      -0.00001060 [kJ/mol]
    Dispersion sSAPT0              -0.00039162 [mEh]      -0.00024575 [kcal/mol]      -0.00102820 [kJ/mol]
  Total sSAPT0                      0.00156918 [mEh]       0.00098467 [kcal/mol]       0.00411988 [kJ/mol]
  --------------------------------------------------------------------------------------------------------

*** tstop() called on atl1-1-01-015-6-r.pace.gatech.edu at Mon Nov 29 16:11:35 2021
Module time:
	user time   =      38.63 seconds =       0.64 minutes
	system time =       8.91 seconds =       0.15 minutes
	total time  =         25 seconds =       0.42 minutes
Total time:
	user time   =      91.85 seconds =       1.53 minutes
	system time =      10.82 seconds =       0.18 minutes
	total time  =         55 seconds =       0.92 minutes


Warning! sapt0 does not have an associated derived wavefunction.The returned wavefunction is the dimer SCF wavefunction.


    Psi4 stopped on: Monday, 29 November 2021 04:11PM
    Psi4 wall time for execution: 0:00:55.45

*** Psi4 exiting successfully. Buy a developer a beer!
