
    -----------------------------------------------------------------------
          Psi4: An Open-Source Ab Initio Electronic Structure Package
                               Psi4 1.4.1 release

                         Git: Rev {HEAD} cd00f19 


    D. G. A. Smith, L. A. Burns, A. C. Simmonett, R. M. Parrish,
    M. C. Schieber, R. Galvelis, P. Kraus, H. Kruse, R. Di Remigio,
    A. Alenaizan, A. M. James, S. Lehtola, J. P. Misiewicz, M. Scheurer,
    R. A. Shaw, J. B. Schriber, Y. Xie, Z. L. Glick, D. A. Sirianni,
    J. S. O'Brien, J. M. Waldrop, A. Kumar, E. G. Hohenstein,
    B. P. Pritchard, B. R. Brooks, H. F. Schaefer III, A. Yu. Sokolov,
    K. Patkowski, A. E. DePrince III, U. Bozkaya, R. A. King,
    F. A. Evangelista, J. M. Turney, T. D. Crawford, C. D. Sherrill,
    J. Chem. Phys. 152(18) 184108 (2020). https://doi.org/10.1063/5.0006002

                            Additional Code Authors
    E. T. Seidl, C. L. Janssen, E. F. Valeev, M. L. Leininger,
    J. F. Gonthier, R. M. Richard, H. R. McAlexander, M. Saitow, X. Wang,
    P. Verma, and M. H. Lechner

             Previous Authors, Complete List of Code Contributors,
                       and Citations for Specific Modules
    https://github.com/psi4/psi4/blob/master/codemeta.json
    https://github.com/psi4/psi4/graphs/contributors
    http://psicode.org/psi4manual/master/introduction.html#citing-psifour

    -----------------------------------------------------------------------


    Psi4 started on: Monday, 29 November 2021 04:10PM

    Process ID: 210492
    Host:       atl1-1-01-015-11-r.pace.gatech.edu
    PSIDATADIR: /storage/home/hhive1/csargent30/data/miniconda3/envs/psi4/share/psi4
    Memory:     500.0 MiB
    Threads:    2
    
  ==> Input File <==

--------------------------------------------------------------------------
# PSI4 file produced by CrystaLattE

# Generated from:               pyrazine.xyz
# Psithon input for N-mer:      2mer-0+31
# Number of atoms per monomer:  [10, 10]
# Number of replicas:           2
# COM priority:                 1.736457607046e-04
# Minimum COM separations:      9.485 
# Separation priority:          5.559093596051e-04
# Minimum monomer separations:  6.436 
# Cutoff priority:              4.570937834331e-05
# Nuclear repulsion energy:     523.8442642803861

memory 7 GB

molecule Dimer_0_31 {
  N           -1.33084758       0.98032658       0.42627037 
  N            3.95377333       0.98032658       0.42627037 
  H            3.56713674       4.35218569      -0.94230973 
  H           -0.94421098       4.35218569      -0.94230973 
  H           -0.94421098      -2.39153253       1.79485047 
  H            3.56713674      -2.39153253       1.79485047 
  C            2.62292576       2.94097974      -0.42627037 
  C            0.00000000       2.94097974      -0.42627037 
  C            0.00000000      -0.98032658       1.27881112 
  C            2.62292576      -0.98032658       1.27881112 
--
  N           -1.33084758     -10.07494920      14.53534357 
  N            3.95377333     -10.07494920      14.53534357 
  H            3.56713674      -6.70309009      13.16676347 
  H           -0.94421098      -6.70309009      13.16676347 
  H           -0.94421098     -13.44680831      15.90392367 
  H            3.56713674     -13.44680831      15.90392367 
  C            2.62292576      -8.11429604      13.68280282 
  C            0.00000000      -8.11429604      13.68280282 
  C            0.00000000     -12.03560236      15.38788432 
  C            2.62292576     -12.03560236      15.38788432 
units = au
no_com
no_reorient
}

set {
  e_convergence 10
  d_convergence 10
  scf_type df
  mp2_type df
  cc_type df
  freeze_core true
}

energy('sapt0/aug-cc-pvdz')

--------------------------------------------------------------------------

  Memory set to   6.519 GiB by Python driver.

Scratch directory: /tmp/

Scratch directory: /tmp/

  //>>>>>>>>>>>>>>>>>>>>>>>>>>>>>>>>>>>//
  //              Dimer HF             //
  //<<<<<<<<<<<<<<<<<<<<<<<<<<<<<<<<<<<//


*** tstart() called on atl1-1-01-015-11-r.pace.gatech.edu
*** at Mon Nov 29 16:10:42 2021

   => Loading Basis Set <=

    Name: AUG-CC-PVDZ
    Role: ORBITAL
    Keyword: BASIS
    atoms 1-2, 11-12  entry N          line   218 file /storage/home/hhive1/csargent30/data/miniconda3/envs/psi4/share/psi4/basis/aug-cc-pvdz.gbs 
    atoms 3-6, 13-16  entry H          line    40 file /storage/home/hhive1/csargent30/data/miniconda3/envs/psi4/share/psi4/basis/aug-cc-pvdz.gbs 
    atoms 7-10, 17-20 entry C          line   182 file /storage/home/hhive1/csargent30/data/miniconda3/envs/psi4/share/psi4/basis/aug-cc-pvdz.gbs 


         ---------------------------------------------------------
                                   SCF
               by Justin Turney, Rob Parrish, Andy Simmonett
                          and Daniel G. A. Smith
                              RHF Reference
                        2 Threads,   6675 MiB Core
         ---------------------------------------------------------

  ==> Geometry <==

    Molecular point group: c1
    Full point group: C1

    Geometry (in Bohr), charge = 0, multiplicity = 1:

       Center              X                  Y                   Z               Mass       
    ------------   -----------------  -----------------  -----------------  -----------------
         N           -1.330847580000     0.980326580000     0.426270370000    14.003074004430
         N            3.953773330000     0.980326580000     0.426270370000    14.003074004430
         H            3.567136740000     4.352185690000    -0.942309730000     1.007825032230
         H           -0.944210980000     4.352185690000    -0.942309730000     1.007825032230
         H           -0.944210980000    -2.391532530000     1.794850470000     1.007825032230
         H            3.567136740000    -2.391532530000     1.794850470000     1.007825032230
         C            2.622925760000     2.940979740000    -0.426270370000    12.000000000000
         C            0.000000000000     2.940979740000    -0.426270370000    12.000000000000
         C            0.000000000000    -0.980326580000     1.278811120000    12.000000000000
         C            2.622925760000    -0.980326580000     1.278811120000    12.000000000000
         N           -1.330847580000   -10.074949200000    14.535343570000    14.003074004430
         N            3.953773330000   -10.074949200000    14.535343570000    14.003074004430
         H            3.567136740000    -6.703090090000    13.166763470000     1.007825032230
         H           -0.944210980000    -6.703090090000    13.166763470000     1.007825032230
         H           -0.944210980000   -13.446808310000    15.903923670000     1.007825032230
         H            3.567136740000   -13.446808310000    15.903923670000     1.007825032230
         C            2.622925760000    -8.114296040000    13.682802820000    12.000000000000
         C            0.000000000000    -8.114296040000    13.682802820000    12.000000000000
         C            0.000000000000   -12.035602360000    15.387884320000    12.000000000000
         C            2.622925760000   -12.035602360000    15.387884320000    12.000000000000

  Running in c1 symmetry.

  Rotational constants: A =      0.06172  B =      0.00234  C =      0.00229 [cm^-1]
  Rotational constants: A =   1850.41136  B =     70.01652  C =     68.52692 [MHz]
  Nuclear repulsion =  523.844264207629521

  Charge       = 0
  Multiplicity = 1
  Electrons    = 84
  Nalpha       = 42
  Nbeta        = 42

  ==> Algorithm <==

  SCF Algorithm Type is DF.
  DIIS enabled.
  MOM disabled.
  Fractional occupation disabled.
  Guess Type is SAD.
  Energy threshold   = 1.00e-10
  Density threshold  = 1.00e-10
  Integral threshold = 1.00e-12

  ==> Primary Basis <==

  Basis Set: AUG-CC-PVDZ
    Blend: AUG-CC-PVDZ
    Number of shells: 148
    Number of basis functions: 348
    Number of Cartesian functions: 372
    Spherical Harmonics?: true
    Max angular momentum: 2

   => Loading Basis Set <=

    Name: (AUG-CC-PVDZ AUX)
    Role: JKFIT
    Keyword: DF_BASIS_SCF
    atoms 1-2, 11-12  entry N          line   212 file /storage/home/hhive1/csargent30/data/miniconda3/envs/psi4/share/psi4/basis/aug-cc-pvdz-jkfit.gbs 
    atoms 3-6, 13-16  entry H          line    70 file /storage/home/hhive1/csargent30/data/miniconda3/envs/psi4/share/psi4/basis/aug-cc-pvdz-jkfit.gbs 
    atoms 7-10, 17-20 entry C          line   154 file /storage/home/hhive1/csargent30/data/miniconda3/envs/psi4/share/psi4/basis/aug-cc-pvdz-jkfit.gbs 

  ==> Integral Setup <==

  ==> DiskDFJK: Density-Fitted J/K Matrices <==

    J tasked:                  Yes
    K tasked:                  Yes
    wK tasked:                  No
    OpenMP threads:              2
    Integrals threads:           2
    Memory [MiB]:             5006
    Algorithm:                Core
    Integral Cache:           SAVE
    Schwarz Cutoff:          1E-12
    Fitting Condition:       1E-10

   => Auxiliary Basis Set <=

  Basis Set: (AUG-CC-PVDZ AUX)
    Blend: AUG-CC-PVDZ-JKFIT
    Number of shells: 432
    Number of basis functions: 1288
    Number of Cartesian functions: 1492
    Spherical Harmonics?: true
    Max angular momentum: 3

  Minimum eigenvalue in the overlap matrix is 8.8432418363E-06.
  Reciprocal condition number of the overlap matrix is 6.8856083355E-07.
    Using symmetric orthogonalization.

  ==> Pre-Iterations <==

  SCF Guess: Superposition of Atomic Densities via on-the-fly atomic UHF (no occupation information).

   -------------------------
    Irrep   Nso     Nmo    
   -------------------------
     A        348     348 
   -------------------------
    Total     348     348
   -------------------------

  ==> Iterations <==

                           Total Energy        Delta E     RMS |[F,P]|

   @DF-RHF iter SAD:  -524.65051381839021   -5.24651e+02   0.00000e+00 
   @DF-RHF iter   1:  -525.07880652925587   -4.28293e-01   1.58378e-03 DIIS
   @DF-RHF iter   2:  -525.25757505045829   -1.78769e-01   5.80821e-04 DIIS
   @DF-RHF iter   3:  -525.27724534846163   -1.96703e-02   1.81464e-04 DIIS
   @DF-RHF iter   4:  -525.27969689308782   -2.45154e-03   5.34658e-05 DIIS
   @DF-RHF iter   5:  -525.27987657005201   -1.79677e-04   1.06930e-05 DIIS
   @DF-RHF iter   6:  -525.27988969672185   -1.31267e-05   3.47186e-06 DIIS
   @DF-RHF iter   7:  -525.27989160577067   -1.90905e-06   9.08611e-07 DIIS
   @DF-RHF iter   8:  -525.27989175355049   -1.47780e-07   1.70082e-07 DIIS
   @DF-RHF iter   9:  -525.27989175774474   -4.19425e-09   8.31772e-08 DIIS
   @DF-RHF iter  10:  -525.27989175839343   -6.48697e-10   1.62785e-08 DIIS
   @DF-RHF iter  11:  -525.27989175843913   -4.57021e-11   2.93942e-09 DIIS
   @DF-RHF iter  12:  -525.27989175844016   -1.02318e-12   1.00928e-09 DIIS
   @DF-RHF iter  13:  -525.27989175844073   -5.68434e-13   4.92154e-10 DIIS
   @DF-RHF iter  14:  -525.27989175844175   -1.02318e-12   2.10083e-10 DIIS
   @DF-RHF iter  15:  -525.27989175844209   -3.41061e-13   6.45146e-11 DIIS
  Energy and wave function converged.


  ==> Post-Iterations <==

    Orbital Energies [Eh]
    ---------------------

    Doubly Occupied:                                                      

       1A    -15.599043     2A    -15.599042     3A    -15.599024  
       4A    -15.599024     5A    -11.275231     6A    -11.275230  
       7A    -11.275163     8A    -11.275163     9A    -11.273978  
      10A    -11.273978    11A    -11.273927    12A    -11.273927  
      13A     -1.314331    14A     -1.314330    15A     -1.225152  
      16A     -1.225152    17A     -1.077793    18A     -1.077792  
      19A     -0.923640    20A     -0.923638    21A     -0.920274  
      22A     -0.920272    23A     -0.761615    24A     -0.761610  
      25A     -0.739382    26A     -0.739378    27A     -0.707197  
      28A     -0.707196    29A     -0.648671    30A     -0.648668  
      31A     -0.581689    32A     -0.581688    33A     -0.575364  
      34A     -0.575361    35A     -0.498065    36A     -0.498064  
      37A     -0.435260    38A     -0.435260    39A     -0.416815  
      40A     -0.416813    41A     -0.360958    42A     -0.360922  

    Virtual:                                                              

      43A      0.027758    44A      0.036307    45A      0.039073  
      46A      0.043649    47A      0.050750    48A      0.051171  
      49A      0.056318    50A      0.065113    51A      0.067937  
      52A      0.071353    53A      0.095406    54A      0.097581  
      55A      0.099231    56A      0.099377    57A      0.111599  
      58A      0.111983    59A      0.113328    60A      0.117273  
      61A      0.118777    62A      0.123113    63A      0.124025  
      64A      0.129395    65A      0.132162    66A      0.132763  
      67A      0.134481    68A      0.153210    69A      0.157117  
      70A      0.157179    71A      0.159290    72A      0.159775  
      73A      0.167057    74A      0.167268    75A      0.168425  
      76A      0.175591    77A      0.178552    78A      0.185269  
      79A      0.187490    80A      0.196001    81A      0.203209  
      82A      0.212003    83A      0.212796    84A      0.221520  
      85A      0.249449    86A      0.262694    87A      0.268253  
      88A      0.271318    89A      0.274006    90A      0.281849  
      91A      0.286176    92A      0.292804    93A      0.299121  
      94A      0.299233    95A      0.302680    96A      0.305215  
      97A      0.319624    98A      0.320651    99A      0.322642  
     100A      0.333428   101A      0.355932   102A      0.357640  
     103A      0.358602   104A      0.361136   105A      0.362675  
     106A      0.365679   107A      0.384018   108A      0.384342  
     109A      0.394705   110A      0.402104   111A      0.410933  
     112A      0.411022   113A      0.422286   114A      0.428249  
     115A      0.430701   116A      0.438267   117A      0.438867  
     118A      0.448518   119A      0.450951   120A      0.456104  
     121A      0.468678   122A      0.477349   123A      0.489615  
     124A      0.492564   125A      0.507786   126A      0.510887  
     127A      0.512092   128A      0.520239   129A      0.525480  
     130A      0.527684   131A      0.528079   132A      0.532560  
     133A      0.554003   134A      0.556986   135A      0.569864  
     136A      0.572833   137A      0.585700   138A      0.587820  
     139A      0.590714   140A      0.590739   141A      0.593227  
     142A      0.593352   143A      0.608132   144A      0.608332  
     145A      0.641069   146A      0.643894   147A      0.644627  
     148A      0.645780   149A      0.681889   150A      0.684259  
     151A      0.688230   152A      0.689171   153A      0.690116  
     154A      0.690366   155A      0.693026   156A      0.694051  
     157A      0.696160   158A      0.699118   159A      0.703641  
     160A      0.704892   161A      0.746536   162A      0.746699  
     163A      0.755554   164A      0.765802   165A      0.767946  
     166A      0.768871   167A      0.780887   168A      0.787552  
     169A      0.797881   170A      0.802135   171A      0.802666  
     172A      0.808917   173A      0.817959   174A      0.822337  
     175A      0.830086   176A      0.831454   177A      0.844949  
     178A      0.851310   179A      0.878943   180A      0.881258  
     181A      0.885143   182A      0.886904   183A      0.894833  
     184A      0.901673   185A      0.926949   186A      0.929779  
     187A      0.939099   188A      0.939654   189A      0.947255  
     190A      0.951046   191A      0.992462   192A      0.998245  
     193A      1.001892   194A      1.003837   195A      1.011616  
     196A      1.023488   197A      1.032662   198A      1.037051  
     199A      1.050093   200A      1.050602   201A      1.088788  
     202A      1.090158   203A      1.100355   204A      1.102884  
     205A      1.118461   206A      1.123699   207A      1.123717  
     208A      1.125240   209A      1.132072   210A      1.138573  
     211A      1.157606   212A      1.160366   213A      1.171520  
     214A      1.173749   215A      1.235113   216A      1.235510  
     217A      1.237123   218A      1.239422   219A      1.308921  
     220A      1.310811   221A      1.329785   222A      1.333908  
     223A      1.413523   224A      1.414291   225A      1.449973  
     226A      1.452348   227A      1.485125   228A      1.486231  
     229A      1.487996   230A      1.488023   231A      1.495611  
     232A      1.501237   233A      1.502033   234A      1.507492  
     235A      1.518828   236A      1.521236   237A      1.570922  
     238A      1.571473   239A      1.572875   240A      1.576332  
     241A      1.585814   242A      1.592725   243A      1.635549  
     244A      1.636944   245A      1.637495   246A      1.646032  
     247A      1.650713   248A      1.653398   249A      1.675888  
     250A      1.677317   251A      1.715763   252A      1.716497  
     253A      1.745627   254A      1.745994   255A      1.753349  
     256A      1.761541   257A      1.782237   258A      1.786365  
     259A      1.814711   260A      1.814865   261A      1.892157  
     262A      1.894468   263A      1.915055   264A      1.916010  
     265A      1.963621   266A      1.965183   267A      1.986555  
     268A      1.987005   269A      2.030586   270A      2.030872  
     271A      2.090176   272A      2.091366   273A      2.098686  
     274A      2.104716   275A      2.141991   276A      2.142684  
     277A      2.162378   278A      2.163150   279A      2.190149  
     280A      2.192502   281A      2.193461   282A      2.194198  
     283A      2.199872   284A      2.199959   285A      2.200706  
     286A      2.202638   287A      2.226506   288A      2.227569  
     289A      2.311011   290A      2.314558   291A      2.354470  
     292A      2.355803   293A      2.429243   294A      2.432729  
     295A      2.438311   296A      2.445935   297A      2.518374  
     298A      2.519549   299A      2.522008   300A      2.522019  
     301A      2.582665   302A      2.587990   303A      2.605059  
     304A      2.605837   305A      2.665065   306A      2.666034  
     307A      2.674330   308A      2.679141   309A      2.685624  
     310A      2.690702   311A      2.712271   312A      2.714642  
     313A      2.718383   314A      2.718877   315A      2.843061  
     316A      2.843954   317A      2.864591   318A      2.866321  
     319A      2.937719   320A      2.943352   321A      3.001005  
     322A      3.002007   323A      3.016511   324A      3.018567  
     325A      3.031390   326A      3.034522   327A      3.092933  
     328A      3.094011   329A      3.221626   330A      3.224233  
     331A      3.254945   332A      3.255279   333A      3.283312  
     334A      3.285847   335A      3.365510   336A      3.366744  
     337A      3.411782   338A      3.414000   339A      3.514042  
     340A      3.514062   341A      3.590514   342A      3.590737  
     343A      3.627103   344A      3.627296   345A      3.976201  
     346A      3.977273   347A      4.252519   348A      4.253386  

    Final Occupation by Irrep:
              A 
    DOCC [    42 ]

  @DF-RHF Final Energy:  -525.27989175844209

   => Energetics <=

    Nuclear Repulsion Energy =            523.8442642076295215
    One-Electron Energy =               -1748.3181574231534796
    Two-Electron Energy =                 699.1940014570818676
    Total Energy =                       -525.2798917584420906

Computation Completed


Properties will be evaluated at   0.000000,   0.000000,   0.000000 [a0]

Properties computed using the SCF density matrix

  Nuclear Dipole Moment: [e a0]
     X:   110.1629      Y:  -381.9742      Z:   628.3878

  Electronic Dipole Moment: [e a0]
     X:  -110.1629      Y:   381.9742      Z:  -628.3878

  Dipole Moment: [e a0]
     X:     0.0000      Y:     0.0000      Z:     0.0000     Total:     0.0000

  Dipole Moment: [D]
     X:     0.0000      Y:     0.0000      Z:     0.0000     Total:     0.0000


*** tstop() called on atl1-1-01-015-11-r.pace.gatech.edu at Mon Nov 29 16:11:00 2021
Module time:
	user time   =      34.56 seconds =       0.58 minutes
	system time =       1.16 seconds =       0.02 minutes
	total time  =         18 seconds =       0.30 minutes
Total time:
	user time   =      34.56 seconds =       0.58 minutes
	system time =       1.16 seconds =       0.02 minutes
	total time  =         18 seconds =       0.30 minutes

  //>>>>>>>>>>>>>>>>>>>>>>>>>>>>>>>>>>>//
  //            Monomer A HF           //
  //<<<<<<<<<<<<<<<<<<<<<<<<<<<<<<<<<<<//


*** tstart() called on atl1-1-01-015-11-r.pace.gatech.edu
*** at Mon Nov 29 16:11:00 2021

   => Loading Basis Set <=

    Name: AUG-CC-PVDZ
    Role: ORBITAL
    Keyword: BASIS
    atoms 1-2, 11-12  entry N          line   218 file /storage/home/hhive1/csargent30/data/miniconda3/envs/psi4/share/psi4/basis/aug-cc-pvdz.gbs 
    atoms 3-6, 13-16  entry H          line    40 file /storage/home/hhive1/csargent30/data/miniconda3/envs/psi4/share/psi4/basis/aug-cc-pvdz.gbs 
    atoms 7-10, 17-20 entry C          line   182 file /storage/home/hhive1/csargent30/data/miniconda3/envs/psi4/share/psi4/basis/aug-cc-pvdz.gbs 


         ---------------------------------------------------------
                                   SCF
               by Justin Turney, Rob Parrish, Andy Simmonett
                          and Daniel G. A. Smith
                              RHF Reference
                        2 Threads,   6675 MiB Core
         ---------------------------------------------------------

  ==> Geometry <==

    Molecular point group: c1
    Full point group: C1

    Geometry (in Bohr), charge = 0, multiplicity = 1:

       Center              X                  Y                   Z               Mass       
    ------------   -----------------  -----------------  -----------------  -----------------
         N           -1.330847580000     0.980326580000     0.426270370000    14.003074004430
         N            3.953773330000     0.980326580000     0.426270370000    14.003074004430
         H            3.567136740000     4.352185690000    -0.942309730000     1.007825032230
         H           -0.944210980000     4.352185690000    -0.942309730000     1.007825032230
         H           -0.944210980000    -2.391532530000     1.794850470000     1.007825032230
         H            3.567136740000    -2.391532530000     1.794850470000     1.007825032230
         C            2.622925760000     2.940979740000    -0.426270370000    12.000000000000
         C            0.000000000000     2.940979740000    -0.426270370000    12.000000000000
         C            0.000000000000    -0.980326580000     1.278811120000    12.000000000000
         C            2.622925760000    -0.980326580000     1.278811120000    12.000000000000
      Gh(N)          -1.330847580000   -10.074949200000    14.535343570000    14.003074004430
      Gh(N)           3.953773330000   -10.074949200000    14.535343570000    14.003074004430
      Gh(H)           3.567136740000    -6.703090090000    13.166763470000     1.007825032230
      Gh(H)          -0.944210980000    -6.703090090000    13.166763470000     1.007825032230
      Gh(H)          -0.944210980000   -13.446808310000    15.903923670000     1.007825032230
      Gh(H)           3.567136740000   -13.446808310000    15.903923670000     1.007825032230
      Gh(C)           2.622925760000    -8.114296040000    13.682802820000    12.000000000000
      Gh(C)           0.000000000000    -8.114296040000    13.682802820000    12.000000000000
      Gh(C)           0.000000000000   -12.035602360000    15.387884320000    12.000000000000
      Gh(C)           2.622925760000   -12.035602360000    15.387884320000    12.000000000000

  Running in c1 symmetry.

  Rotational constants: A =      0.06172  B =      0.00234  C =      0.00229 [cm^-1]
  Rotational constants: A =   1850.41136  B =     70.01652  C =     68.52692 [MHz]
  Nuclear repulsion =  212.551731110485349

  Charge       = 0
  Multiplicity = 1
  Electrons    = 42
  Nalpha       = 21
  Nbeta        = 21

  ==> Algorithm <==

  SCF Algorithm Type is DF.
  DIIS enabled.
  MOM disabled.
  Fractional occupation disabled.
  Guess Type is SAD.
  Energy threshold   = 1.00e-10
  Density threshold  = 1.00e-10
  Integral threshold = 1.00e-12

  ==> Primary Basis <==

  Basis Set: AUG-CC-PVDZ
    Blend: AUG-CC-PVDZ
    Number of shells: 148
    Number of basis functions: 348
    Number of Cartesian functions: 372
    Spherical Harmonics?: true
    Max angular momentum: 2

   => Loading Basis Set <=

    Name: (AUG-CC-PVDZ AUX)
    Role: JKFIT
    Keyword: DF_BASIS_SCF
    atoms 1-2, 11-12  entry N          line   212 file /storage/home/hhive1/csargent30/data/miniconda3/envs/psi4/share/psi4/basis/aug-cc-pvdz-jkfit.gbs 
    atoms 3-6, 13-16  entry H          line    70 file /storage/home/hhive1/csargent30/data/miniconda3/envs/psi4/share/psi4/basis/aug-cc-pvdz-jkfit.gbs 
    atoms 7-10, 17-20 entry C          line   154 file /storage/home/hhive1/csargent30/data/miniconda3/envs/psi4/share/psi4/basis/aug-cc-pvdz-jkfit.gbs 

  ==> Integral Setup <==

  ==> DiskDFJK: Density-Fitted J/K Matrices <==

    J tasked:                  Yes
    K tasked:                  Yes
    wK tasked:                  No
    OpenMP threads:              2
    Integrals threads:           2
    Memory [MiB]:             5006
    Algorithm:                Core
    Integral Cache:           LOAD
    Schwarz Cutoff:          1E-12
    Fitting Condition:       1E-10

   => Auxiliary Basis Set <=

  Basis Set: (AUG-CC-PVDZ AUX)
    Blend: AUG-CC-PVDZ-JKFIT
    Number of shells: 432
    Number of basis functions: 1288
    Number of Cartesian functions: 1492
    Spherical Harmonics?: true
    Max angular momentum: 3

  Minimum eigenvalue in the overlap matrix is 8.8432418363E-06.
  Reciprocal condition number of the overlap matrix is 6.8856083355E-07.
    Using symmetric orthogonalization.

  ==> Pre-Iterations <==

  SCF Guess: Superposition of Atomic Densities via on-the-fly atomic UHF (no occupation information).

   -------------------------
    Irrep   Nso     Nmo    
   -------------------------
     A        348     348 
   -------------------------
    Total     348     348
   -------------------------

  ==> Iterations <==

                           Total Energy        Delta E     RMS |[F,P]|

   @DF-RHF iter SAD:  -262.32523137408543   -2.62325e+02   0.00000e+00 
   @DF-RHF iter   1:  -262.53941892287526   -2.14188e-01   1.11992e-03 DIIS
   @DF-RHF iter   2:  -262.62880160353410   -8.93827e-02   4.10681e-04 DIIS
   @DF-RHF iter   3:  -262.63863694678901   -9.83534e-03   1.28250e-04 DIIS
   @DF-RHF iter   4:  -262.63986182760010   -1.22488e-03   3.77606e-05 DIIS
   @DF-RHF iter   5:  -262.63995143571969   -8.96081e-05   7.55675e-06 DIIS
   @DF-RHF iter   6:  -262.63995798511644   -6.54940e-06   2.45187e-06 DIIS
   @DF-RHF iter   7:  -262.63995893687434   -9.51758e-07   6.40095e-07 DIIS
   @DF-RHF iter   8:  -262.63995901075452   -7.38802e-08   9.91669e-08 DIIS
   @DF-RHF iter   9:  -262.63995901274069   -1.98617e-09   1.88298e-08 DIIS
   @DF-RHF iter  10:  -262.63995901281123   -7.05427e-11   3.21653e-09 DIIS
   @DF-RHF iter  11:  -262.63995901281419   -2.95586e-12   7.18160e-10 DIIS
   @DF-RHF iter  12:  -262.63995901281373    4.54747e-13   3.65250e-10 DIIS
   @DF-RHF iter  13:  -262.63995901281299    7.38964e-13   7.45530e-11 DIIS
  Energy and wave function converged.


  ==> Post-Iterations <==

    Orbital Energies [Eh]
    ---------------------

    Doubly Occupied:                                                      

       1A    -15.598073     2A    -15.598054     3A    -11.274239  
       4A    -11.274193     5A    -11.272977     6A    -11.272966  
       7A     -1.313349     8A     -1.224178     9A     -1.076805  
      10A     -0.922665    11A     -0.919285    12A     -0.760640  
      13A     -0.738404    14A     -0.706218    15A     -0.647691  
      16A     -0.580714    17A     -0.574371    18A     -0.497114  
      19A     -0.434290    20A     -0.415858    21A     -0.359926  

    Virtual:                                                              

      22A      0.020040    23A      0.033464    24A      0.038708  
      25A      0.039039    26A      0.048896    27A      0.049370  
      28A      0.056478    29A      0.067095    30A      0.067108  
      31A      0.078526    32A      0.088202    33A      0.098180  
      34A      0.099977    35A      0.102722    36A      0.106286  
      37A      0.108169    38A      0.114842    39A      0.120354  
      40A      0.120523    41A      0.123012    42A      0.124658  
      43A      0.128007    44A      0.130672    45A      0.132698  
      46A      0.135690    47A      0.149345    48A      0.150803  
      49A      0.156757    50A      0.159853    51A      0.161625  
      52A      0.164807    53A      0.167493    54A      0.175954  
      55A      0.177260    56A      0.181025    57A      0.195810  
      58A      0.196663    59A      0.202844    60A      0.207025  
      61A      0.217335    62A      0.218875    63A      0.227741  
      64A      0.236417    65A      0.241410    66A      0.259486  
      67A      0.264110    68A      0.271730    69A      0.274153  
      70A      0.281703    71A      0.293686    72A      0.296432  
      73A      0.302453    74A      0.307829    75A      0.319926  
      76A      0.326225    77A      0.327272    78A      0.331466  
      79A      0.331538    80A      0.346052    81A      0.357936  
      82A      0.360423    83A      0.366071    84A      0.380969  
      85A      0.384127    86A      0.384661    87A      0.396217  
      88A      0.404685    89A      0.410758    90A      0.420489  
      91A      0.428198    92A      0.431551    93A      0.439551  
      94A      0.440258    95A      0.441642    96A      0.453290  
      97A      0.460809    98A      0.465216    99A      0.472583  
     100A      0.479052   101A      0.482664   102A      0.492587  
     103A      0.507556   104A      0.510415   105A      0.517948  
     106A      0.522269   107A      0.528740   108A      0.530978  
     109A      0.540440   110A      0.556081   111A      0.557933  
     112A      0.562084   113A      0.565103   114A      0.572979  
     115A      0.583665   116A      0.587854   117A      0.591299  
     118A      0.594171   119A      0.596814   120A      0.609175  
     121A      0.615353   122A      0.624298   123A      0.640748  
     124A      0.644239   125A      0.645011   126A      0.649352  
     127A      0.650866   128A      0.679571   129A      0.685806  
     130A      0.688844   131A      0.689797   132A      0.692729  
     133A      0.693825   134A      0.695951   135A      0.705227  
     136A      0.721114   137A      0.728221   138A      0.747167  
     139A      0.752976   140A      0.762031   141A      0.767869  
     142A      0.775111   143A      0.785164   144A      0.793465  
     145A      0.802393   146A      0.803274   147A      0.810474  
     148A      0.815493   149A      0.819870   150A      0.825318  
     151A      0.831615   152A      0.848109   153A      0.849501  
     154A      0.849645   155A      0.870520   156A      0.881243  
     157A      0.887168   158A      0.889281   159A      0.898852  
     160A      0.905495   161A      0.929180   162A      0.929835  
     163A      0.940348   164A      0.948587   165A      0.950608  
     166A      0.969887   167A      0.976283   168A      0.985955  
     169A      0.998244   170A      1.002543   171A      1.017279  
     172A      1.030614   173A      1.036657   174A      1.048027  
     175A      1.051301   176A      1.075827   177A      1.089167  
     178A      1.090401   179A      1.102251   180A      1.123659  
     181A      1.124490   182A      1.130922   183A      1.135175  
     184A      1.141530   185A      1.159663   186A      1.167910  
     187A      1.170022   188A      1.173712   189A      1.192192  
     190A      1.195559   191A      1.201039   192A      1.222480  
     193A      1.236281   194A      1.239343   195A      1.254293  
     196A      1.307048   197A      1.310356   198A      1.318842  
     199A      1.327598   200A      1.329658   201A      1.337466  
     202A      1.346873   203A      1.390681   204A      1.414943  
     205A      1.447934   206A      1.452049   207A      1.454977  
     208A      1.479499   209A      1.485933   210A      1.486718  
     211A      1.489557   212A      1.501369   213A      1.504415  
     214A      1.521297   215A      1.573135   216A      1.575249  
     217A      1.589762   218A      1.637221   219A      1.646395  
     220A      1.649329   221A      1.658393   222A      1.677462  
     223A      1.697858   224A      1.717125   225A      1.746989  
     226A      1.758102   227A      1.785141   228A      1.815779  
     229A      1.894313   230A      1.916476   231A      1.965303  
     232A      1.987755   233A      2.031667   234A      2.069399  
     235A      2.091703   236A      2.102662   237A      2.103901  
     238A      2.124299   239A      2.143337   240A      2.155643  
     241A      2.159100   242A      2.163857   243A      2.191617  
     244A      2.194201   245A      2.195950   246A      2.200681  
     247A      2.202645   248A      2.227999   249A      2.234901  
     250A      2.244990   251A      2.248834   252A      2.309251  
     253A      2.313939   254A      2.319245   255A      2.356043  
     256A      2.384967   257A      2.419282   258A      2.431643  
     259A      2.434491   260A      2.440466   261A      2.443283  
     262A      2.471837   263A      2.487410   264A      2.497509  
     265A      2.520080   266A      2.523028   267A      2.524783  
     268A      2.545440   269A      2.569485   270A      2.586015  
     271A      2.592302   272A      2.606482   273A      2.625190  
     274A      2.667088   275A      2.677476   276A      2.688743  
     277A      2.714983   278A      2.716575   279A      2.719026  
     280A      2.725717   281A      2.767094   282A      2.844468  
     283A      2.866351   284A      2.904158   285A      2.941580  
     286A      2.947610   287A      2.957484   288A      2.972933  
     289A      3.002550   290A      3.018578   291A      3.033834  
     292A      3.057421   293A      3.065431   294A      3.094470  
     295A      3.113812   296A      3.223912   297A      3.245197  
     298A      3.256079   299A      3.285250   300A      3.289200  
     301A      3.321004   302A      3.337395   303A      3.339840  
     304A      3.347714   305A      3.350738   306A      3.367171  
     307A      3.412465   308A      3.413876   309A      3.470070  
     310A      3.501493   311A      3.515020   312A      3.522763  
     313A      3.591173   314A      3.605532   315A      3.607394  
     316A      3.628170   317A      3.700606   318A      3.818854  
     319A      3.830162   320A      3.941590   321A      3.969237  
     322A      3.977691   323A      4.010865   324A      4.195253  
     325A      4.244336   326A      4.254038   327A      4.441583  
     328A      4.545926   329A      4.578474   330A      4.867093  
     331A      4.976083   332A      5.058375   333A      5.263636  
     334A      5.316113   335A      5.631130   336A      5.691464  
     337A      5.826311   338A      5.951779   339A      6.283358  
     340A      6.306260   341A      6.452920   342A      6.630552  
     343A     18.124743   344A     18.207236   345A     19.017832  
     346A     19.342650   347A     25.286169   348A     25.373804  

    Final Occupation by Irrep:
              A 
    DOCC [    21 ]

  @DF-RHF Final Energy:  -262.63995901281299

   => Energetics <=

    Nuclear Repulsion Energy =            212.5517311104853491
    One-Electron Energy =                -775.4593574048701612
    Two-Electron Energy =                 300.2676672815718462
    Total Energy =                       -262.6399590128129944

Computation Completed


Properties will be evaluated at   0.000000,   0.000000,   0.000000 [a0]

Properties computed using the SCF density matrix

  Nuclear Dipole Moment: [e a0]
     X:    55.0814      Y:    41.1737      Z:    17.9034

  Electronic Dipole Moment: [e a0]
     X:   -55.0814      Y:   -41.1738      Z:   -17.9032

  Dipole Moment: [e a0]
     X:     0.0000      Y:    -0.0001      Z:     0.0001     Total:     0.0002

  Dipole Moment: [D]
     X:     0.0000      Y:    -0.0003      Z:     0.0003     Total:     0.0004


*** tstop() called on atl1-1-01-015-11-r.pace.gatech.edu at Mon Nov 29 16:11:13 2021
Module time:
	user time   =      22.08 seconds =       0.37 minutes
	system time =       0.56 seconds =       0.01 minutes
	total time  =         13 seconds =       0.22 minutes
Total time:
	user time   =      56.65 seconds =       0.94 minutes
	system time =       1.72 seconds =       0.03 minutes
	total time  =         31 seconds =       0.52 minutes

  //>>>>>>>>>>>>>>>>>>>>>>>>>>>>>>>>>>>//
  //            Monomer B HF           //
  //<<<<<<<<<<<<<<<<<<<<<<<<<<<<<<<<<<<//


*** tstart() called on atl1-1-01-015-11-r.pace.gatech.edu
*** at Mon Nov 29 16:11:13 2021

   => Loading Basis Set <=

    Name: AUG-CC-PVDZ
    Role: ORBITAL
    Keyword: BASIS
    atoms 1-2, 11-12  entry N          line   218 file /storage/home/hhive1/csargent30/data/miniconda3/envs/psi4/share/psi4/basis/aug-cc-pvdz.gbs 
    atoms 3-6, 13-16  entry H          line    40 file /storage/home/hhive1/csargent30/data/miniconda3/envs/psi4/share/psi4/basis/aug-cc-pvdz.gbs 
    atoms 7-10, 17-20 entry C          line   182 file /storage/home/hhive1/csargent30/data/miniconda3/envs/psi4/share/psi4/basis/aug-cc-pvdz.gbs 


         ---------------------------------------------------------
                                   SCF
               by Justin Turney, Rob Parrish, Andy Simmonett
                          and Daniel G. A. Smith
                              RHF Reference
                        2 Threads,   6675 MiB Core
         ---------------------------------------------------------

  ==> Geometry <==

    Molecular point group: c1
    Full point group: C1

    Geometry (in Bohr), charge = 0, multiplicity = 1:

       Center              X                  Y                   Z               Mass       
    ------------   -----------------  -----------------  -----------------  -----------------
      Gh(N)          -1.330847580000     0.980326580000     0.426270370000    14.003074004430
      Gh(N)           3.953773330000     0.980326580000     0.426270370000    14.003074004430
      Gh(H)           3.567136740000     4.352185690000    -0.942309730000     1.007825032230
      Gh(H)          -0.944210980000     4.352185690000    -0.942309730000     1.007825032230
      Gh(H)          -0.944210980000    -2.391532530000     1.794850470000     1.007825032230
      Gh(H)           3.567136740000    -2.391532530000     1.794850470000     1.007825032230
      Gh(C)           2.622925760000     2.940979740000    -0.426270370000    12.000000000000
      Gh(C)           0.000000000000     2.940979740000    -0.426270370000    12.000000000000
      Gh(C)           0.000000000000    -0.980326580000     1.278811120000    12.000000000000
      Gh(C)           2.622925760000    -0.980326580000     1.278811120000    12.000000000000
         N           -1.330847580000   -10.074949200000    14.535343570000    14.003074004430
         N            3.953773330000   -10.074949200000    14.535343570000    14.003074004430
         H            3.567136740000    -6.703090090000    13.166763470000     1.007825032230
         H           -0.944210980000    -6.703090090000    13.166763470000     1.007825032230
         H           -0.944210980000   -13.446808310000    15.903923670000     1.007825032230
         H            3.567136740000   -13.446808310000    15.903923670000     1.007825032230
         C            2.622925760000    -8.114296040000    13.682802820000    12.000000000000
         C            0.000000000000    -8.114296040000    13.682802820000    12.000000000000
         C            0.000000000000   -12.035602360000    15.387884320000    12.000000000000
         C            2.622925760000   -12.035602360000    15.387884320000    12.000000000000

  Running in c1 symmetry.

  Rotational constants: A =      0.06172  B =      0.00234  C =      0.00229 [cm^-1]
  Rotational constants: A =   1850.41136  B =     70.01652  C =     68.52692 [MHz]
  Nuclear repulsion =  212.551731042300531

  Charge       = 0
  Multiplicity = 1
  Electrons    = 42
  Nalpha       = 21
  Nbeta        = 21

  ==> Algorithm <==

  SCF Algorithm Type is DF.
  DIIS enabled.
  MOM disabled.
  Fractional occupation disabled.
  Guess Type is SAD.
  Energy threshold   = 1.00e-10
  Density threshold  = 1.00e-10
  Integral threshold = 1.00e-12

  ==> Primary Basis <==

  Basis Set: AUG-CC-PVDZ
    Blend: AUG-CC-PVDZ
    Number of shells: 148
    Number of basis functions: 348
    Number of Cartesian functions: 372
    Spherical Harmonics?: true
    Max angular momentum: 2

   => Loading Basis Set <=

    Name: (AUG-CC-PVDZ AUX)
    Role: JKFIT
    Keyword: DF_BASIS_SCF
    atoms 1-2, 11-12  entry N          line   212 file /storage/home/hhive1/csargent30/data/miniconda3/envs/psi4/share/psi4/basis/aug-cc-pvdz-jkfit.gbs 
    atoms 3-6, 13-16  entry H          line    70 file /storage/home/hhive1/csargent30/data/miniconda3/envs/psi4/share/psi4/basis/aug-cc-pvdz-jkfit.gbs 
    atoms 7-10, 17-20 entry C          line   154 file /storage/home/hhive1/csargent30/data/miniconda3/envs/psi4/share/psi4/basis/aug-cc-pvdz-jkfit.gbs 

  ==> Integral Setup <==

  ==> DiskDFJK: Density-Fitted J/K Matrices <==

    J tasked:                  Yes
    K tasked:                  Yes
    wK tasked:                  No
    OpenMP threads:              2
    Integrals threads:           2
    Memory [MiB]:             5006
    Algorithm:                Core
    Integral Cache:           LOAD
    Schwarz Cutoff:          1E-12
    Fitting Condition:       1E-10

   => Auxiliary Basis Set <=

  Basis Set: (AUG-CC-PVDZ AUX)
    Blend: AUG-CC-PVDZ-JKFIT
    Number of shells: 432
    Number of basis functions: 1288
    Number of Cartesian functions: 1492
    Spherical Harmonics?: true
    Max angular momentum: 3

  Minimum eigenvalue in the overlap matrix is 8.8432418363E-06.
  Reciprocal condition number of the overlap matrix is 6.8856083355E-07.
    Using symmetric orthogonalization.

  ==> Pre-Iterations <==

  SCF Guess: Superposition of Atomic Densities via on-the-fly atomic UHF (no occupation information).

   -------------------------
    Irrep   Nso     Nmo    
   -------------------------
     A        348     348 
   -------------------------
    Total     348     348
   -------------------------

  ==> Iterations <==

                           Total Energy        Delta E     RMS |[F,P]|

   @DF-RHF iter SAD:  -262.32523136631409   -2.62325e+02   0.00000e+00 
   @DF-RHF iter   1:  -262.53941892113625   -2.14188e-01   1.11992e-03 DIIS
   @DF-RHF iter   2:  -262.62880160166736   -8.93827e-02   4.10681e-04 DIIS
   @DF-RHF iter   3:  -262.63863694487327   -9.83534e-03   1.28250e-04 DIIS
   @DF-RHF iter   4:  -262.63986182568578   -1.22488e-03   3.77606e-05 DIIS
   @DF-RHF iter   5:  -262.63995143380453   -8.96081e-05   7.55675e-06 DIIS
   @DF-RHF iter   6:  -262.63995798320133   -6.54940e-06   2.45187e-06 DIIS
   @DF-RHF iter   7:  -262.63995893495962   -9.51758e-07   6.40095e-07 DIIS
   @DF-RHF iter   8:  -262.63995900883941   -7.38798e-08   9.91669e-08 DIIS
   @DF-RHF iter   9:  -262.63995901082552   -1.98611e-09   1.88298e-08 DIIS
   @DF-RHF iter  10:  -262.63995901089652   -7.09974e-11   3.21653e-09 DIIS
   @DF-RHF iter  11:  -262.63995901089828   -1.76215e-12   7.18144e-10 DIIS
   @DF-RHF iter  12:  -262.63995901089879   -5.11591e-13   3.65246e-10 DIIS
   @DF-RHF iter  13:  -262.63995901089845    3.41061e-13   7.45530e-11 DIIS
  Energy and wave function converged.


  ==> Post-Iterations <==

    Orbital Energies [Eh]
    ---------------------

    Doubly Occupied:                                                      

       1A    -15.598073     2A    -15.598054     3A    -11.274239  
       4A    -11.274193     5A    -11.272977     6A    -11.272966  
       7A     -1.313349     8A     -1.224178     9A     -1.076805  
      10A     -0.922665    11A     -0.919285    12A     -0.760640  
      13A     -0.738404    14A     -0.706218    15A     -0.647691  
      16A     -0.580714    17A     -0.574371    18A     -0.497114  
      19A     -0.434290    20A     -0.415858    21A     -0.359926  

    Virtual:                                                              

      22A      0.020040    23A      0.033464    24A      0.038708  
      25A      0.039039    26A      0.048896    27A      0.049370  
      28A      0.056478    29A      0.067095    30A      0.067108  
      31A      0.078526    32A      0.088202    33A      0.098180  
      34A      0.099977    35A      0.102722    36A      0.106286  
      37A      0.108169    38A      0.114842    39A      0.120354  
      40A      0.120523    41A      0.123012    42A      0.124658  
      43A      0.128007    44A      0.130672    45A      0.132698  
      46A      0.135690    47A      0.149345    48A      0.150803  
      49A      0.156757    50A      0.159853    51A      0.161625  
      52A      0.164807    53A      0.167493    54A      0.175954  
      55A      0.177260    56A      0.181025    57A      0.195810  
      58A      0.196663    59A      0.202844    60A      0.207025  
      61A      0.217335    62A      0.218875    63A      0.227741  
      64A      0.236417    65A      0.241410    66A      0.259486  
      67A      0.264110    68A      0.271730    69A      0.274153  
      70A      0.281703    71A      0.293686    72A      0.296432  
      73A      0.302453    74A      0.307829    75A      0.319926  
      76A      0.326225    77A      0.327272    78A      0.331466  
      79A      0.331538    80A      0.346052    81A      0.357936  
      82A      0.360423    83A      0.366071    84A      0.380969  
      85A      0.384127    86A      0.384661    87A      0.396217  
      88A      0.404685    89A      0.410758    90A      0.420489  
      91A      0.428198    92A      0.431551    93A      0.439551  
      94A      0.440258    95A      0.441642    96A      0.453290  
      97A      0.460809    98A      0.465216    99A      0.472583  
     100A      0.479052   101A      0.482664   102A      0.492587  
     103A      0.507556   104A      0.510415   105A      0.517948  
     106A      0.522269   107A      0.528740   108A      0.530978  
     109A      0.540440   110A      0.556081   111A      0.557933  
     112A      0.562084   113A      0.565103   114A      0.572979  
     115A      0.583665   116A      0.587854   117A      0.591299  
     118A      0.594171   119A      0.596814   120A      0.609175  
     121A      0.615353   122A      0.624298   123A      0.640748  
     124A      0.644239   125A      0.645011   126A      0.649352  
     127A      0.650866   128A      0.679571   129A      0.685806  
     130A      0.688844   131A      0.689797   132A      0.692729  
     133A      0.693825   134A      0.695951   135A      0.705227  
     136A      0.721114   137A      0.728221   138A      0.747167  
     139A      0.752976   140A      0.762031   141A      0.767869  
     142A      0.775111   143A      0.785164   144A      0.793465  
     145A      0.802393   146A      0.803274   147A      0.810474  
     148A      0.815493   149A      0.819870   150A      0.825318  
     151A      0.831615   152A      0.848109   153A      0.849501  
     154A      0.849645   155A      0.870520   156A      0.881243  
     157A      0.887168   158A      0.889281   159A      0.898852  
     160A      0.905495   161A      0.929180   162A      0.929835  
     163A      0.940348   164A      0.948587   165A      0.950608  
     166A      0.969887   167A      0.976283   168A      0.985955  
     169A      0.998244   170A      1.002543   171A      1.017279  
     172A      1.030614   173A      1.036657   174A      1.048027  
     175A      1.051301   176A      1.075827   177A      1.089167  
     178A      1.090401   179A      1.102251   180A      1.123659  
     181A      1.124490   182A      1.130922   183A      1.135175  
     184A      1.141530   185A      1.159663   186A      1.167910  
     187A      1.170022   188A      1.173712   189A      1.192192  
     190A      1.195559   191A      1.201039   192A      1.222480  
     193A      1.236281   194A      1.239343   195A      1.254293  
     196A      1.307048   197A      1.310356   198A      1.318842  
     199A      1.327598   200A      1.329658   201A      1.337466  
     202A      1.346873   203A      1.390681   204A      1.414943  
     205A      1.447934   206A      1.452049   207A      1.454977  
     208A      1.479499   209A      1.485933   210A      1.486718  
     211A      1.489557   212A      1.501369   213A      1.504415  
     214A      1.521297   215A      1.573135   216A      1.575249  
     217A      1.589762   218A      1.637221   219A      1.646395  
     220A      1.649329   221A      1.658393   222A      1.677461  
     223A      1.697858   224A      1.717125   225A      1.746989  
     226A      1.758102   227A      1.785141   228A      1.815779  
     229A      1.894313   230A      1.916476   231A      1.965303  
     232A      1.987755   233A      2.031667   234A      2.069399  
     235A      2.091703   236A      2.102662   237A      2.103901  
     238A      2.124299   239A      2.143337   240A      2.155643  
     241A      2.159100   242A      2.163857   243A      2.191617  
     244A      2.194201   245A      2.195950   246A      2.200681  
     247A      2.202645   248A      2.227999   249A      2.234901  
     250A      2.244990   251A      2.248834   252A      2.309251  
     253A      2.313939   254A      2.319245   255A      2.356043  
     256A      2.384967   257A      2.419282   258A      2.431643  
     259A      2.434491   260A      2.440466   261A      2.443283  
     262A      2.471837   263A      2.487410   264A      2.497509  
     265A      2.520080   266A      2.523028   267A      2.524783  
     268A      2.545440   269A      2.569485   270A      2.586015  
     271A      2.592302   272A      2.606482   273A      2.625190  
     274A      2.667088   275A      2.677476   276A      2.688743  
     277A      2.714983   278A      2.716575   279A      2.719026  
     280A      2.725717   281A      2.767094   282A      2.844468  
     283A      2.866351   284A      2.904158   285A      2.941580  
     286A      2.947610   287A      2.957484   288A      2.972933  
     289A      3.002550   290A      3.018578   291A      3.033834  
     292A      3.057421   293A      3.065431   294A      3.094470  
     295A      3.113812   296A      3.223912   297A      3.245197  
     298A      3.256079   299A      3.285250   300A      3.289200  
     301A      3.321004   302A      3.337395   303A      3.339840  
     304A      3.347714   305A      3.350738   306A      3.367171  
     307A      3.412465   308A      3.413876   309A      3.470070  
     310A      3.501493   311A      3.515020   312A      3.522763  
     313A      3.591173   314A      3.605532   315A      3.607394  
     316A      3.628170   317A      3.700606   318A      3.818854  
     319A      3.830162   320A      3.941590   321A      3.969237  
     322A      3.977691   323A      4.010865   324A      4.195253  
     325A      4.244336   326A      4.254038   327A      4.441583  
     328A      4.545926   329A      4.578474   330A      4.867093  
     331A      4.976083   332A      5.058375   333A      5.263636  
     334A      5.316113   335A      5.631130   336A      5.691464  
     337A      5.826311   338A      5.951779   339A      6.283358  
     340A      6.306260   341A      6.452920   342A      6.630552  
     343A     18.124743   344A     18.207236   345A     19.017832  
     346A     19.342650   347A     25.286169   348A     25.373804  

    Final Occupation by Irrep:
              A 
    DOCC [    21 ]

  @DF-RHF Final Energy:  -262.63995901089845

   => Energetics <=

    Nuclear Repulsion Energy =            212.5517310423005313
    One-Electron Energy =                -775.4593572672876007
    Two-Electron Energy =                 300.2676672140886467
    Total Energy =                       -262.6399590108984512

Computation Completed


Properties will be evaluated at   0.000000,   0.000000,   0.000000 [a0]

Properties computed using the SCF density matrix

  Nuclear Dipole Moment: [e a0]
     X:    55.0814      Y:  -423.1479      Z:   610.4844

  Electronic Dipole Moment: [e a0]
     X:   -55.0814      Y:   423.1480      Z:  -610.4846

  Dipole Moment: [e a0]
     X:     0.0000      Y:     0.0001      Z:    -0.0001     Total:     0.0002

  Dipole Moment: [D]
     X:     0.0000      Y:     0.0003      Z:    -0.0003     Total:     0.0004


*** tstop() called on atl1-1-01-015-11-r.pace.gatech.edu at Mon Nov 29 16:11:25 2021
Module time:
	user time   =      21.79 seconds =       0.36 minutes
	system time =       0.55 seconds =       0.01 minutes
	total time  =         12 seconds =       0.20 minutes
Total time:
	user time   =      78.45 seconds =       1.31 minutes
	system time =       2.27 seconds =       0.04 minutes
	total time  =         43 seconds =       0.72 minutes
  Constructing Basis Sets for SAPT...

   => Loading Basis Set <=

    Name: (AUG-CC-PVDZ AUX)
    Role: RIFIT
    Keyword: DF_BASIS_SAPT
    atoms 1-2, 11-12  entry N          line   158 file /storage/home/hhive1/csargent30/data/miniconda3/envs/psi4/share/psi4/basis/aug-cc-pvdz-ri.gbs 
    atoms 3-6, 13-16  entry H          line    30 file /storage/home/hhive1/csargent30/data/miniconda3/envs/psi4/share/psi4/basis/aug-cc-pvdz-ri.gbs 
    atoms 7-10, 17-20 entry C          line   112 file /storage/home/hhive1/csargent30/data/miniconda3/envs/psi4/share/psi4/basis/aug-cc-pvdz-ri.gbs 


  //>>>>>>>>>>>>>>>>>>>>>>>>>>>>>>>>>>>//
  //               SAPT0               //
  //<<<<<<<<<<<<<<<<<<<<<<<<<<<<<<<<<<<//


*** tstart() called on atl1-1-01-015-11-r.pace.gatech.edu
*** at Mon Nov 29 16:11:25 2021

        SAPT0  
    Ed Hohenstein
     6 June 2009

      Orbital Information
  --------------------------
    NSO        =       348
    NMO        =       348
    NRI        =      1048
    NOCC A     =        21
    NOCC B     =        21
    FOCC A     =         6
    FOCC B     =         6
    NVIR A     =       327
    NVIR B     =       327

    Elst10,r            =     0.000028496709 [Eh]
    Exch10              =     0.000000005153 [Eh]
    Exch10 (S^2)        =     0.000000005153 [Eh]

    Iter     Energy [mEh]          dE [mEh]         Residual      Time [s]
       1      -0.00104741       0.001047409       0.325816059             0
       2      -0.00094861      -0.000098796       0.074732982             0
       3      -0.00102249       0.000073875       0.040409360             1
       4      -0.00104975       0.000027258       0.010789028             1
       5      -0.00104244      -0.000007303       0.004740076             2
       6      -0.00104270       0.000000252       0.001834386             2
       7      -0.00104305       0.000000355       0.000629795             2
       8      -0.00104314       0.000000090       0.000140537             3
       9      -0.00104310      -0.000000042       0.000046252             3
      10      -0.00104310      -0.000000001       0.000017123             3
      11      -0.00104310       0.000000004       0.000005788             4
      12      -0.00104310      -0.000000001       0.000002247             4
      13      -0.00104310      -0.000000000       0.000000563             4

    CHF Iterations converged


    Iter     Energy [mEh]          dE [mEh]         Residual      Time [s]
       1      -0.00104741       0.001047409       0.325816058             1
       2      -0.00094861      -0.000098796       0.074732982             1
       3      -0.00102249       0.000073875       0.040409360             2
       4      -0.00104975       0.000027258       0.010789028             2
       5      -0.00104244      -0.000007303       0.004740076             2
       6      -0.00104270       0.000000252       0.001834386             3
       7      -0.00104305       0.000000355       0.000629795             3
       8      -0.00104314       0.000000090       0.000140537             3
       9      -0.00104310      -0.000000042       0.000046252             4
      10      -0.00104310      -0.000000001       0.000017123             4
      11      -0.00104310       0.000000004       0.000005788             5
      12      -0.00104310      -0.000000001       0.000002247             5
      13      -0.00104310      -0.000000000       0.000000563             5

    CHF Iterations converged

    Ind20,r (A<-B)      =    -0.000001043100 [Eh]
    Ind20,r (B<-A)      =    -0.000001043100 [Eh]
    Ind20,r             =    -0.000002086201 [Eh]
    Exch-Ind20,r (A<-B) =     0.000000006725 [Eh]
    Exch-Ind20,r (B<-A) =     0.000000006725 [Eh]
    Exch-Ind20,r        =     0.000000013450 [Eh]
    Disp20              =    -0.000071485341 [Eh]
    Disp20 (SS)         =    -0.000035742671 [Eh]
    Disp20 (OS)         =    -0.000035742671 [Eh]
    Exch-Disp20         =     0.000000005689 [Eh]
    Exch-Disp20 (SS)    =     0.000000004445 [Eh]
    Exch-Disp20 (OS)    =     0.000000001244 [Eh]

    SAPT Results 
  --------------------------------------------------------------------------------------------------------
    Electrostatics                  0.02849671 [mEh]       0.01788195 [kcal/mol]       0.07481810 [kJ/mol]
      Elst10,r                      0.02849671 [mEh]       0.01788195 [kcal/mol]       0.07481810 [kJ/mol]

    Exchange                        0.00000515 [mEh]       0.00000323 [kcal/mol]       0.00001353 [kJ/mol]
      Exch10                        0.00000515 [mEh]       0.00000323 [kcal/mol]       0.00001353 [kJ/mol]
      Exch10(S^2)                   0.00000515 [mEh]       0.00000323 [kcal/mol]       0.00001353 [kJ/mol]

    Induction                      -0.00223659 [mEh]      -0.00140348 [kcal/mol]      -0.00587217 [kJ/mol]
      Ind20,r                      -0.00208620 [mEh]      -0.00130911 [kcal/mol]      -0.00547732 [kJ/mol]
      Exch-Ind20,r                  0.00001345 [mEh]       0.00000844 [kcal/mol]       0.00003531 [kJ/mol]
      delta HF,r (2)               -0.00016384 [mEh]      -0.00010281 [kcal/mol]      -0.00043017 [kJ/mol]

    Dispersion                     -0.07147965 [mEh]      -0.04485416 [kcal/mol]      -0.18766980 [kJ/mol]
      Disp20                       -0.07148534 [mEh]      -0.04485773 [kcal/mol]      -0.18768474 [kJ/mol]
      Exch-Disp20                   0.00000569 [mEh]       0.00000357 [kcal/mol]       0.00001494 [kJ/mol]
      Disp20 (SS)                  -0.03574267 [mEh]      -0.02242886 [kcal/mol]      -0.09384237 [kJ/mol]
      Disp20 (OS)                  -0.03574267 [mEh]      -0.02242886 [kcal/mol]      -0.09384237 [kJ/mol]
      Exch-Disp20 (SS)              0.00000444 [mEh]       0.00000279 [kcal/mol]       0.00001167 [kJ/mol]
      Exch-Disp20 (OS)              0.00000124 [mEh]       0.00000078 [kcal/mol]       0.00000327 [kJ/mol]

  Total HF                          0.02626527 [mEh]       0.01648171 [kcal/mol]       0.06895946 [kJ/mol]
  Total SAPT0                      -0.04521438 [mEh]      -0.02837245 [kcal/mol]      -0.11871035 [kJ/mol]

  Special recipe for scaled SAPT0 (see Manual):
    Electrostatics sSAPT0           0.02849671 [mEh]       0.01788195 [kcal/mol]       0.07481810 [kJ/mol]
    Exchange sSAPT0                 0.00000515 [mEh]       0.00000323 [kcal/mol]       0.00001353 [kJ/mol]
    Induction sSAPT0               -0.00223659 [mEh]      -0.00140348 [kcal/mol]      -0.00587217 [kJ/mol]
    Dispersion sSAPT0              -0.07147965 [mEh]      -0.04485416 [kcal/mol]      -0.18766980 [kJ/mol]
  Total sSAPT0                     -0.04521438 [mEh]      -0.02837245 [kcal/mol]      -0.11871035 [kJ/mol]
  --------------------------------------------------------------------------------------------------------

*** tstop() called on atl1-1-01-015-11-r.pace.gatech.edu at Mon Nov 29 16:11:53 2021
Module time:
	user time   =      42.33 seconds =       0.71 minutes
	system time =       9.92 seconds =       0.17 minutes
	total time  =         28 seconds =       0.47 minutes
Total time:
	user time   =     121.03 seconds =       2.02 minutes
	system time =      12.21 seconds =       0.20 minutes
	total time  =         71 seconds =       1.18 minutes


Warning! sapt0 does not have an associated derived wavefunction.The returned wavefunction is the dimer SCF wavefunction.


    Psi4 stopped on: Monday, 29 November 2021 04:11PM
    Psi4 wall time for execution: 0:01:11.61

*** Psi4 exiting successfully. Buy a developer a beer!
