
    -----------------------------------------------------------------------
          Psi4: An Open-Source Ab Initio Electronic Structure Package
                               Psi4 1.4.1 release

                         Git: Rev {HEAD} cd00f19


    D. G. A. Smith, L. A. Burns, A. C. Simmonett, R. M. Parrish,
    M. C. Schieber, R. Galvelis, P. Kraus, H. Kruse, R. Di Remigio,
    A. Alenaizan, A. M. James, S. Lehtola, J. P. Misiewicz, M. Scheurer,
    R. A. Shaw, J. B. Schriber, Y. Xie, Z. L. Glick, D. A. Sirianni,
    J. S. O'Brien, J. M. Waldrop, A. Kumar, E. G. Hohenstein,
    B. P. Pritchard, B. R. Brooks, H. F. Schaefer III, A. Yu. Sokolov,
    K. Patkowski, A. E. DePrince III, U. Bozkaya, R. A. King,
    F. A. Evangelista, J. M. Turney, T. D. Crawford, C. D. Sherrill,
    J. Chem. Phys. 152(18) 184108 (2020). https://doi.org/10.1063/5.0006002

                            Additional Code Authors
    E. T. Seidl, C. L. Janssen, E. F. Valeev, M. L. Leininger,
    J. F. Gonthier, R. M. Richard, H. R. McAlexander, M. Saitow, X. Wang,
    P. Verma, and M. H. Lechner

             Previous Authors, Complete List of Code Contributors,
                       and Citations for Specific Modules
    https://github.com/psi4/psi4/blob/master/codemeta.json
    https://github.com/psi4/psi4/graphs/contributors
    http://psicode.org/psi4manual/master/introduction.html#citing-psifour

    -----------------------------------------------------------------------


    Psi4 started on: Monday, 29 November 2021 04:10PM

    Process ID: 430291
    Host:       atl1-1-01-013-14-l.pace.gatech.edu
    PSIDATADIR: /storage/home/hhive1/csargent30/data/miniconda3/envs/psi4/share/psi4
    Memory:     500.0 MiB
    Threads:    2

  ==> Input File <==

--------------------------------------------------------------------------
# PSI4 file produced by CrystaLattE

# Generated from:               pyrazine.xyz
# Psithon input for N-mer:      2mer-0+416
# Number of atoms per monomer:  [10, 10]
# Number of replicas:           4
# COM priority:                 1.248198738323e-05
# Minimum COM separations:      22.813
# Separation priority:          2.377153828860e-05
# Minimum monomer separations:  18.404
# Cutoff priority:              6.835071288962e-07
# Nuclear repulsion energy:     466.10347268163355

memory 7 GB

molecule Dimer_0_416 {
  N           -1.33084758       0.98032658       0.42627037
  N            3.95377333       0.98032658       0.42627037
  H            3.56713674       4.35218569      -0.94230973
  H           -0.94421098       4.35218569      -0.94230973
  H           -0.94421098      -2.39153253       1.79485047
  H            3.56713674      -2.39153253       1.79485047
  C            2.62292576       2.94097974      -0.42627037
  C            0.00000000       2.94097974      -0.42627037
  C            0.00000000      -0.98032658       1.27881112
  C            2.62292576      -0.98032658       1.27881112
--
  N          -18.95329959     -32.18550076      21.58988017
  N          -13.66867868     -32.18550076      21.58988017
  H          -14.05531527     -28.81364165      20.22130007
  H          -18.56666299     -28.81364165      20.22130007
  H          -18.56666299     -35.55735987      22.95846027
  H          -14.05531527     -35.55735987      22.95846027
  C          -14.99952625     -30.22484760      20.73733942
  C          -17.62245201     -30.22484760      20.73733942
  C          -17.62245201     -34.14615392      22.44242092
  C          -14.99952625     -34.14615392      22.44242092
units = au
no_com
no_reorient
}

set {
  e_convergence 10
  d_convergence 10
  scf_type df
  mp2_type df
  cc_type df
  freeze_core true
}

energy('sapt0/aug-cc-pvdz')

--------------------------------------------------------------------------

  Memory set to   6.519 GiB by Python driver.

Scratch directory: /tmp/

Scratch directory: /tmp/

  //>>>>>>>>>>>>>>>>>>>>>>>>>>>>>>>>>>>//
  //              Dimer HF             //
  //<<<<<<<<<<<<<<<<<<<<<<<<<<<<<<<<<<<//


*** tstart() called on atl1-1-01-013-14-l.pace.gatech.edu
*** at Mon Nov 29 16:10:45 2021

   => Loading Basis Set <=

    Name: AUG-CC-PVDZ
    Role: ORBITAL
    Keyword: BASIS
    atoms 1-2, 11-12  entry N          line   218 file /storage/home/hhive1/csargent30/data/miniconda3/envs/psi4/share/psi4/basis/aug-cc-pvdz.gbs
    atoms 3-6, 13-16  entry H          line    40 file /storage/home/hhive1/csargent30/data/miniconda3/envs/psi4/share/psi4/basis/aug-cc-pvdz.gbs
    atoms 7-10, 17-20 entry C          line   182 file /storage/home/hhive1/csargent30/data/miniconda3/envs/psi4/share/psi4/basis/aug-cc-pvdz.gbs


         ---------------------------------------------------------
                                   SCF
               by Justin Turney, Rob Parrish, Andy Simmonett
                          and Daniel G. A. Smith
                              RHF Reference
                        2 Threads,   6675 MiB Core
         ---------------------------------------------------------

  ==> Geometry <==

    Molecular point group: c1
    Full point group: C1

    Geometry (in Bohr), charge = 0, multiplicity = 1:

       Center              X                  Y                   Z               Mass
    ------------   -----------------  -----------------  -----------------  -----------------
         N           -1.330847580000     0.980326580000     0.426270370000    14.003074004430
         N            3.953773330000     0.980326580000     0.426270370000    14.003074004430
         H            3.567136740000     4.352185690000    -0.942309730000     1.007825032230
         H           -0.944210980000     4.352185690000    -0.942309730000     1.007825032230
         H           -0.944210980000    -2.391532530000     1.794850470000     1.007825032230
         H            3.567136740000    -2.391532530000     1.794850470000     1.007825032230
         C            2.622925760000     2.940979740000    -0.426270370000    12.000000000000
         C            0.000000000000     2.940979740000    -0.426270370000    12.000000000000
         C            0.000000000000    -0.980326580000     1.278811120000    12.000000000000
         C            2.622925760000    -0.980326580000     1.278811120000    12.000000000000
         N          -18.953299590000   -32.185500760000    21.589880170000    14.003074004430
         N          -13.668678680000   -32.185500760000    21.589880170000    14.003074004430
         H          -14.055315270000   -28.813641650000    20.221300070000     1.007825032230
         H          -18.566662990000   -28.813641650000    20.221300070000     1.007825032230
         H          -18.566662990000   -35.557359870000    22.958460270000     1.007825032230
         H          -14.055315270000   -35.557359870000    22.958460270000     1.007825032230
         C          -14.999526250000   -30.224847600000    20.737339420000    12.000000000000
         C          -17.622452010000   -30.224847600000    20.737339420000    12.000000000000
         C          -17.622452010000   -34.146153920000    22.442420920000    12.000000000000
         C          -14.999526250000   -34.146153920000    22.442420920000    12.000000000000

  Running in c1 symmetry.

  Rotational constants: A =      0.08054  B =      0.00042  C =      0.00042 [cm^-1]
  Rotational constants: A =   2414.42405  B =     12.68994  C =     12.63799 [MHz]
  Nuclear repulsion =  466.103472608222660

  Charge       = 0
  Multiplicity = 1
  Electrons    = 84
  Nalpha       = 42
  Nbeta        = 42

  ==> Algorithm <==

  SCF Algorithm Type is DF.
  DIIS enabled.
  MOM disabled.
  Fractional occupation disabled.
  Guess Type is SAD.
  Energy threshold   = 1.00e-10
  Density threshold  = 1.00e-10
  Integral threshold = 1.00e-12

  ==> Primary Basis <==

  Basis Set: AUG-CC-PVDZ
    Blend: AUG-CC-PVDZ
    Number of shells: 148
    Number of basis functions: 348
    Number of Cartesian functions: 372
    Spherical Harmonics?: true
    Max angular momentum: 2

   => Loading Basis Set <=

    Name: (AUG-CC-PVDZ AUX)
    Role: JKFIT
    Keyword: DF_BASIS_SCF
    atoms 1-2, 11-12  entry N          line   212 file /storage/home/hhive1/csargent30/data/miniconda3/envs/psi4/share/psi4/basis/aug-cc-pvdz-jkfit.gbs
    atoms 3-6, 13-16  entry H          line    70 file /storage/home/hhive1/csargent30/data/miniconda3/envs/psi4/share/psi4/basis/aug-cc-pvdz-jkfit.gbs
    atoms 7-10, 17-20 entry C          line   154 file /storage/home/hhive1/csargent30/data/miniconda3/envs/psi4/share/psi4/basis/aug-cc-pvdz-jkfit.gbs

  ==> Integral Setup <==

  ==> DiskDFJK: Density-Fitted J/K Matrices <==

    J tasked:                  Yes
    K tasked:                  Yes
    wK tasked:                  No
    OpenMP threads:              2
    Integrals threads:           2
    Memory [MiB]:             5006
    Algorithm:                Core
    Integral Cache:           SAVE
    Schwarz Cutoff:          1E-12
    Fitting Condition:       1E-10

   => Auxiliary Basis Set <=

  Basis Set: (AUG-CC-PVDZ AUX)
    Blend: AUG-CC-PVDZ-JKFIT
    Number of shells: 432
    Number of basis functions: 1288
    Number of Cartesian functions: 1492
    Spherical Harmonics?: true
    Max angular momentum: 3

  Minimum eigenvalue in the overlap matrix is 9.4898534831E-06.
  Reciprocal condition number of the overlap matrix is 7.4017745876E-07.
    Using symmetric orthogonalization.

  ==> Pre-Iterations <==

  SCF Guess: Superposition of Atomic Densities via on-the-fly atomic UHF (no occupation information).

   -------------------------
    Irrep   Nso     Nmo
   -------------------------
     A        348     348
   -------------------------
    Total     348     348
   -------------------------

  ==> Iterations <==

                           Total Energy        Delta E     RMS |[F,P]|

   @DF-RHF iter SAD:  -524.65046250916680   -5.24650e+02   0.00000e+00
   @DF-RHF iter   1:  -525.07881560870374   -4.28353e-01   1.58371e-03 DIIS
   @DF-RHF iter   2:  -525.25757643373913   -1.78761e-01   5.80769e-04 DIIS
   @DF-RHF iter   3:  -525.27724565465996   -1.96692e-02   1.81370e-04 DIIS
   @DF-RHF iter   4:  -525.27969516640360   -2.44951e-03   5.34005e-05 DIIS
   @DF-RHF iter   5:  -525.27987436636954   -1.79200e-04   1.06852e-05 DIIS
   @DF-RHF iter   6:  -525.27988746681967   -1.31005e-05   3.46856e-06 DIIS
   @DF-RHF iter   7:  -525.27988937155476   -1.90474e-06   9.05315e-07 DIIS
   @DF-RHF iter   8:  -525.27988951932468   -1.47770e-07   1.40789e-07 DIIS
   @DF-RHF iter   9:  -525.27988952329167   -3.96699e-09   3.09094e-08 DIIS
   @DF-RHF iter  10:  -525.27988952343048   -1.38812e-10   1.67442e-08 DIIS
   @DF-RHF iter  11:  -525.27988952345140   -2.09184e-11   2.92892e-09 DIIS
   @DF-RHF iter  12:  -525.27988952345333   -1.93268e-12   4.96040e-10 DIIS
   @DF-RHF iter  13:  -525.27988952345424   -9.09495e-13   2.29243e-10 DIIS
   @DF-RHF iter  14:  -525.27988952345379    4.54747e-13   5.84947e-11 DIIS
  Energy and wave function converged.


  ==> Post-Iterations <==

    Orbital Energies [Eh]
    ---------------------

    Doubly Occupied:

       1A    -15.598151     2A    -15.598151     3A    -15.598131
       4A    -15.598131     5A    -11.274317     6A    -11.274317
       7A    -11.274272     8A    -11.274272     9A    -11.273054
      10A    -11.273054    11A    -11.273047    12A    -11.273047
      13A     -1.313425    14A     -1.313425    15A     -1.224254
      16A     -1.224254    17A     -1.076881    18A     -1.076881
      19A     -0.922741    20A     -0.922741    21A     -0.919361
      22A     -0.919361    23A     -0.760715    24A     -0.760715
      25A     -0.738480    26A     -0.738480    27A     -0.706292
      28A     -0.706292    29A     -0.647766    30A     -0.647766
      31A     -0.580789    32A     -0.580789    33A     -0.574448
      34A     -0.574448    35A     -0.497191    36A     -0.497191
      37A     -0.434366    38A     -0.434366    39A     -0.415934
      40A     -0.415934    41A     -0.360002    42A     -0.360002

    Virtual:

      43A      0.034419    44A      0.034419    45A      0.040660
      46A      0.040660    47A      0.048304    48A      0.048304
      49A      0.058510    50A      0.058511    51A      0.067035
      52A      0.067035    53A      0.099341    54A      0.099341
      55A      0.100869    56A      0.100869    57A      0.114124
      58A      0.114124    59A      0.114874    60A      0.114874
      61A      0.123696    62A      0.123697    63A      0.125245
      64A      0.125245    65A      0.128581    66A      0.128581
      67A      0.132812    68A      0.132812    69A      0.158121
      70A      0.158121    71A      0.161006    72A      0.161006
      73A      0.161246    74A      0.161247    75A      0.163834
      76A      0.163835    77A      0.175098    78A      0.175099
      79A      0.186840    80A      0.186840    81A      0.203831
      82A      0.203831    83A      0.212460    84A      0.212460
      85A      0.250440    86A      0.250440    87A      0.267678
      88A      0.267678    89A      0.277978    90A      0.277978
      91A      0.287735    92A      0.287735    93A      0.293128
      94A      0.293128    95A      0.295669    96A      0.295670
      97A      0.314753    98A      0.314753    99A      0.320379
     100A      0.320379   101A      0.355348   102A      0.355349
     103A      0.357830   104A      0.357830   105A      0.364582
     106A      0.364582   107A      0.382503   108A      0.382504
     109A      0.398813   110A      0.398813   111A      0.409816
     112A      0.409816   113A      0.425373   114A      0.425374
     115A      0.433847   116A      0.433847   117A      0.437133
     118A      0.437133   119A      0.452012   120A      0.452012
     121A      0.471405   122A      0.471405   123A      0.492061
     124A      0.492061   125A      0.504783   126A      0.504783
     127A      0.514836   128A      0.514836   129A      0.524468
     130A      0.524468   131A      0.528590   132A      0.528590
     133A      0.554499   134A      0.554499   135A      0.570457
     136A      0.570457   137A      0.587456   138A      0.587456
     139A      0.591428   140A      0.591428   141A      0.593721
     142A      0.593721   143A      0.608850   144A      0.608850
     145A      0.643438   146A      0.643438   147A      0.644241
     148A      0.644242   149A      0.685058   150A      0.685058
     151A      0.687680   152A      0.687680   153A      0.689853
     154A      0.689853   155A      0.690263   156A      0.690264
     157A      0.694749   158A      0.694749   159A      0.703750
     160A      0.703750   161A      0.746479   162A      0.746479
     163A      0.754739   164A      0.754739   165A      0.766887
     166A      0.766887   167A      0.781327   168A      0.781327
     169A      0.799736   170A      0.799736   171A      0.802631
     172A      0.802631   173A      0.818938   174A      0.818938
     175A      0.830993   176A      0.830993   177A      0.847434
     178A      0.847434   179A      0.880466   180A      0.880466
     181A      0.886331   182A      0.886331   183A      0.894604
     184A      0.894604   185A      0.929193   186A      0.929193
     187A      0.939388   188A      0.939388   189A      0.949228
     190A      0.949228   191A      0.996573   192A      0.996573
     193A      0.998829   194A      0.998829   195A      1.012937
     196A      1.012937   197A      1.033292   198A      1.033292
     199A      1.051116   200A      1.051116   201A      1.089302
     202A      1.089302   203A      1.100367   204A      1.100367
     205A      1.122120   206A      1.122120   207A      1.123966
     208A      1.123966   209A      1.134284   210A      1.134284
     211A      1.158662   212A      1.158662   213A      1.173486
     214A      1.173486   215A      1.235338   216A      1.235338
     217A      1.238726   218A      1.238726   219A      1.309595
     220A      1.309595   221A      1.331070   222A      1.331070
     223A      1.414203   224A      1.414204   225A      1.451448
     226A      1.451448   227A      1.486058   228A      1.486058
     229A      1.487996   230A      1.487996   231A      1.499132
     232A      1.499132   233A      1.502767   234A      1.502767
     235A      1.518173   236A      1.518173   237A      1.572608
     238A      1.572608   239A      1.574114   240A      1.574114
     241A      1.587758   242A      1.587758   243A      1.635903
     244A      1.635903   245A      1.640426   246A      1.640426
     247A      1.648141   248A      1.648141   249A      1.676474
     250A      1.676474   251A      1.716913   252A      1.716913
     253A      1.746519   254A      1.746519   255A      1.755026
     256A      1.755026   257A      1.783684   258A      1.783684
     259A      1.815649   260A      1.815649   261A      1.893245
     262A      1.893245   263A      1.916059   264A      1.916059
     265A      1.964750   266A      1.964750   267A      1.987596
     268A      1.987596   269A      2.031124   270A      2.031124
     271A      2.091470   272A      2.091470   273A      2.100949
     274A      2.100949   275A      2.142875   276A      2.142875
     277A      2.163277   278A      2.163277   279A      2.190410
     280A      2.190410   281A      2.193223   282A      2.193223
     283A      2.200301   284A      2.200301   285A      2.202332
     286A      2.202332   287A      2.227548   288A      2.227548
     289A      2.312682   290A      2.312682   291A      2.355150
     292A      2.355150   293A      2.430878   294A      2.430878
     295A      2.438898   296A      2.438898   297A      2.519300
     298A      2.519300   299A      2.522316   300A      2.522316
     301A      2.584688   302A      2.584688   303A      2.606188
     304A      2.606188   305A      2.665146   306A      2.665146
     307A      2.675331   308A      2.675331   309A      2.686317
     310A      2.686317   311A      2.713906   312A      2.713907
     313A      2.718512   314A      2.718512   315A      2.843936
     316A      2.843936   317A      2.865682   318A      2.865682
     319A      2.939117   320A      2.939117   321A      3.001777
     322A      3.001777   323A      3.017793   324A      3.017793
     325A      3.032108   326A      3.032108   327A      3.094058
     328A      3.094058   329A      3.220237   330A      3.220238
     331A      3.255901   332A      3.255901   333A      3.284801
     334A      3.284801   335A      3.366061   336A      3.366061
     337A      3.413288   338A      3.413288   339A      3.514841
     340A      3.514841   341A      3.590576   342A      3.590576
     343A      3.627690   344A      3.627690   345A      3.977158
     346A      3.977158   347A      4.253407   348A      4.253407

    Final Occupation by Irrep:
              A
    DOCC [    42 ]

  @DF-RHF Final Energy:  -525.27988952345379

   => Energetics <=

    Nuclear Repulsion Energy =            466.1034726082226598
    One-Electron Energy =               -1632.9122520553028153
    Two-Electron Energy =                 641.5288899236264797
    Total Energy =                       -525.2798895234537895

Computation Completed


Properties will be evaluated at   0.000000,   0.000000,   0.000000 [a0]

Properties computed using the SCF density matrix

  Nuclear Dipole Moment: [e a0]
     X:  -629.9801      Y: -1310.6173      Z:   924.6783

  Electronic Dipole Moment: [e a0]
     X:   629.9801      Y:  1310.6173      Z:  -924.6783

  Dipole Moment: [e a0]
     X:     0.0000      Y:     0.0000      Z:     0.0000     Total:     0.0000

  Dipole Moment: [D]
     X:     0.0000      Y:     0.0000      Z:     0.0000     Total:     0.0000


*** tstop() called on atl1-1-01-013-14-l.pace.gatech.edu at Mon Nov 29 16:11:00 2021
Module time:
	user time   =      26.20 seconds =       0.44 minutes
	system time =       1.00 seconds =       0.02 minutes
	total time  =         15 seconds =       0.25 minutes
Total time:
	user time   =      26.20 seconds =       0.44 minutes
	system time =       1.00 seconds =       0.02 minutes
	total time  =         15 seconds =       0.25 minutes

  //>>>>>>>>>>>>>>>>>>>>>>>>>>>>>>>>>>>//
  //            Monomer A HF           //
  //<<<<<<<<<<<<<<<<<<<<<<<<<<<<<<<<<<<//


*** tstart() called on atl1-1-01-013-14-l.pace.gatech.edu
*** at Mon Nov 29 16:11:00 2021

   => Loading Basis Set <=

    Name: AUG-CC-PVDZ
    Role: ORBITAL
    Keyword: BASIS
    atoms 1-2, 11-12  entry N          line   218 file /storage/home/hhive1/csargent30/data/miniconda3/envs/psi4/share/psi4/basis/aug-cc-pvdz.gbs
    atoms 3-6, 13-16  entry H          line    40 file /storage/home/hhive1/csargent30/data/miniconda3/envs/psi4/share/psi4/basis/aug-cc-pvdz.gbs
    atoms 7-10, 17-20 entry C          line   182 file /storage/home/hhive1/csargent30/data/miniconda3/envs/psi4/share/psi4/basis/aug-cc-pvdz.gbs


         ---------------------------------------------------------
                                   SCF
               by Justin Turney, Rob Parrish, Andy Simmonett
                          and Daniel G. A. Smith
                              RHF Reference
                        2 Threads,   6675 MiB Core
         ---------------------------------------------------------

  ==> Geometry <==

    Molecular point group: c1
    Full point group: C1

    Geometry (in Bohr), charge = 0, multiplicity = 1:

       Center              X                  Y                   Z               Mass
    ------------   -----------------  -----------------  -----------------  -----------------
         N           -1.330847580000     0.980326580000     0.426270370000    14.003074004430
         N            3.953773330000     0.980326580000     0.426270370000    14.003074004430
         H            3.567136740000     4.352185690000    -0.942309730000     1.007825032230
         H           -0.944210980000     4.352185690000    -0.942309730000     1.007825032230
         H           -0.944210980000    -2.391532530000     1.794850470000     1.007825032230
         H            3.567136740000    -2.391532530000     1.794850470000     1.007825032230
         C            2.622925760000     2.940979740000    -0.426270370000    12.000000000000
         C            0.000000000000     2.940979740000    -0.426270370000    12.000000000000
         C            0.000000000000    -0.980326580000     1.278811120000    12.000000000000
         C            2.622925760000    -0.980326580000     1.278811120000    12.000000000000
      Gh(N)         -18.953299590000   -32.185500760000    21.589880170000    14.003074004430
      Gh(N)         -13.668678680000   -32.185500760000    21.589880170000    14.003074004430
      Gh(H)         -14.055315270000   -28.813641650000    20.221300070000     1.007825032230
      Gh(H)         -18.566662990000   -28.813641650000    20.221300070000     1.007825032230
      Gh(H)         -18.566662990000   -35.557359870000    22.958460270000     1.007825032230
      Gh(H)         -14.055315270000   -35.557359870000    22.958460270000     1.007825032230
      Gh(C)         -14.999526250000   -30.224847600000    20.737339420000    12.000000000000
      Gh(C)         -17.622452010000   -30.224847600000    20.737339420000    12.000000000000
      Gh(C)         -17.622452010000   -34.146153920000    22.442420920000    12.000000000000
      Gh(C)         -14.999526250000   -34.146153920000    22.442420920000    12.000000000000

  Running in c1 symmetry.

  Rotational constants: A =      0.08054  B =      0.00042  C =      0.00042 [cm^-1]
  Rotational constants: A =   2414.42405  B =     12.68994  C =     12.63799 [MHz]
  Nuclear repulsion =  212.551731110485349

  Charge       = 0
  Multiplicity = 1
  Electrons    = 42
  Nalpha       = 21
  Nbeta        = 21

  ==> Algorithm <==

  SCF Algorithm Type is DF.
  DIIS enabled.
  MOM disabled.
  Fractional occupation disabled.
  Guess Type is SAD.
  Energy threshold   = 1.00e-10
  Density threshold  = 1.00e-10
  Integral threshold = 1.00e-12

  ==> Primary Basis <==

  Basis Set: AUG-CC-PVDZ
    Blend: AUG-CC-PVDZ
    Number of shells: 148
    Number of basis functions: 348
    Number of Cartesian functions: 372
    Spherical Harmonics?: true
    Max angular momentum: 2

   => Loading Basis Set <=

    Name: (AUG-CC-PVDZ AUX)
    Role: JKFIT
    Keyword: DF_BASIS_SCF
    atoms 1-2, 11-12  entry N          line   212 file /storage/home/hhive1/csargent30/data/miniconda3/envs/psi4/share/psi4/basis/aug-cc-pvdz-jkfit.gbs
    atoms 3-6, 13-16  entry H          line    70 file /storage/home/hhive1/csargent30/data/miniconda3/envs/psi4/share/psi4/basis/aug-cc-pvdz-jkfit.gbs
    atoms 7-10, 17-20 entry C          line   154 file /storage/home/hhive1/csargent30/data/miniconda3/envs/psi4/share/psi4/basis/aug-cc-pvdz-jkfit.gbs

  ==> Integral Setup <==

  ==> DiskDFJK: Density-Fitted J/K Matrices <==

    J tasked:                  Yes
    K tasked:                  Yes
    wK tasked:                  No
    OpenMP threads:              2
    Integrals threads:           2
    Memory [MiB]:             5006
    Algorithm:                Core
    Integral Cache:           LOAD
    Schwarz Cutoff:          1E-12
    Fitting Condition:       1E-10

   => Auxiliary Basis Set <=

  Basis Set: (AUG-CC-PVDZ AUX)
    Blend: AUG-CC-PVDZ-JKFIT
    Number of shells: 432
    Number of basis functions: 1288
    Number of Cartesian functions: 1492
    Spherical Harmonics?: true
    Max angular momentum: 3

  Minimum eigenvalue in the overlap matrix is 9.4898534831E-06.
  Reciprocal condition number of the overlap matrix is 7.4017745876E-07.
    Using symmetric orthogonalization.

  ==> Pre-Iterations <==

  SCF Guess: Superposition of Atomic Densities via on-the-fly atomic UHF (no occupation information).

   -------------------------
    Irrep   Nso     Nmo
   -------------------------
     A        348     348
   -------------------------
    Total     348     348
   -------------------------

  ==> Iterations <==

                           Total Energy        Delta E     RMS |[F,P]|

   @DF-RHF iter SAD:  -262.32523125868033   -2.62325e+02   0.00000e+00
   @DF-RHF iter   1:  -262.53940798264824   -2.14177e-01   1.11985e-03 DIIS
   @DF-RHF iter   2:  -262.62878837498465   -8.93804e-02   4.10664e-04 DIIS
   @DF-RHF iter   3:  -262.63862291953780   -9.83454e-03   1.28248e-04 DIIS
   @DF-RHF iter   4:  -262.63984767280948   -1.22475e-03   3.77599e-05 DIIS
   @DF-RHF iter   5:  -262.63993727327136   -8.96005e-05   7.55558e-06 DIIS
   @DF-RHF iter   6:  -262.63994382353070   -6.55026e-06   2.45264e-06 DIIS
   @DF-RHF iter   7:  -262.63994477590427   -9.52374e-07   6.40130e-07 DIIS
   @DF-RHF iter   8:  -262.63994484979213   -7.38879e-08   9.91693e-08 DIIS
   @DF-RHF iter   9:  -262.63994485177841   -1.98628e-09   1.88228e-08 DIIS
   @DF-RHF iter  10:  -262.63994485184969   -7.12816e-11   3.19151e-09 DIIS
   @DF-RHF iter  11:  -262.63994485185111   -1.42109e-12   5.22317e-10 DIIS
   @DF-RHF iter  12:  -262.63994485185157   -4.54747e-13   9.54333e-11 DIIS
  Energy and wave function converged.


  ==> Post-Iterations <==

    Orbital Energies [Eh]
    ---------------------

    Doubly Occupied:

       1A    -15.598072     2A    -15.598053     3A    -11.274239
       4A    -11.274194     5A    -11.272975     6A    -11.272969
       7A     -1.313347     8A     -1.224176     9A     -1.076803
      10A     -0.922662    11A     -0.919282    12A     -0.760637
      13A     -0.738402    14A     -0.706214    15A     -0.647687
      16A     -0.580711    17A     -0.574369    18A     -0.497113
      19A     -0.434288    20A     -0.415855    21A     -0.359924

    Virtual:

      22A      0.022281    23A      0.034497    24A      0.039354
      25A      0.040739    26A      0.041025    27A      0.048384
      28A      0.058591    29A      0.058694    30A      0.067113
      31A      0.079530    32A      0.084894    33A      0.099419
      34A      0.100948    35A      0.103839    36A      0.108360
      37A      0.108699    38A      0.114201    39A      0.114951
      40A      0.122346    41A      0.123776    42A      0.125322
      43A      0.125434    44A      0.128661    45A      0.130792
      46A      0.132889    47A      0.133994    48A      0.151949
      49A      0.152873    50A      0.158199    51A      0.159191
      52A      0.161084    53A      0.161326    54A      0.163914
      55A      0.175179    56A      0.176588    57A      0.186918
      58A      0.197646    59A      0.203751    60A      0.203908
      61A      0.206509    62A      0.212538    63A      0.222228
      64A      0.233457    65A      0.239283    66A      0.250517
      67A      0.255067    68A      0.267756    69A      0.270622
      70A      0.278057    71A      0.287812    72A      0.293207
      73A      0.295749    74A      0.302168    75A      0.314832
      76A      0.320457    77A      0.320483    78A      0.328003
      79A      0.331148    80A      0.343963    81A      0.355428
      82A      0.357908    83A      0.364661    84A      0.380343
      85A      0.382583    86A      0.385481    87A      0.398891
      88A      0.401117    89A      0.409895    90A      0.419116
      91A      0.424795    92A      0.425453    93A      0.433925
      94A      0.437212    95A      0.441778    96A      0.452092
      97A      0.460501    98A      0.460949    99A      0.471483
     100A      0.475931   101A      0.478664   102A      0.492140
     103A      0.504862   104A      0.507666   105A      0.514914
     106A      0.523610   107A      0.524547   108A      0.528668
     109A      0.535577   110A      0.554577   111A      0.557689
     112A      0.561359   113A      0.564339   114A      0.570535
     115A      0.581748   116A      0.587535   117A      0.591506
     118A      0.593799   119A      0.595853   120A      0.608929
     121A      0.614986   122A      0.620005   123A      0.636210
     124A      0.643517   125A      0.644321   126A      0.649200
     127A      0.651335   128A      0.679258   129A      0.685136
     130A      0.685159   131A      0.687758   132A      0.689932
     133A      0.690342   134A      0.694828   135A      0.703829
     136A      0.719734   137A      0.728237   138A      0.746558
     139A      0.746633   140A      0.754817   141A      0.766965
     142A      0.775527   143A      0.781406   144A      0.793476
     145A      0.799815   146A      0.802710   147A      0.810938
     148A      0.811822   149A      0.819016   150A      0.824596
     151A      0.831071   152A      0.847513   153A      0.847907
     154A      0.849029   155A      0.868450   156A      0.880544
     157A      0.886410   158A      0.887993   159A      0.894682
     160A      0.905949   161A      0.928957   162A      0.929272
     163A      0.939466   164A      0.947536   165A      0.949307
     166A      0.970625   167A      0.976779   168A      0.986481
     169A      0.996652   170A      0.998908   171A      1.013015
     172A      1.032264   173A      1.033370   174A      1.046774
     175A      1.051194   176A      1.076109   177A      1.089381
     178A      1.090122   179A      1.100445   180A      1.122199
     181A      1.124044   182A      1.130507   183A      1.134362
     184A      1.140110   185A      1.158740   186A      1.168434
     187A      1.170521   188A      1.173565   189A      1.192052
     190A      1.193085   191A      1.200318   192A      1.222161
     193A      1.235416   194A      1.238804   195A      1.250873
     196A      1.307402   197A      1.309674   198A      1.318106
     199A      1.326258   200A      1.329456   201A      1.331148
     202A      1.346652   203A      1.389059   204A      1.414282
     205A      1.448233   206A      1.451526   207A      1.455304
     208A      1.478978   209A      1.486137   210A      1.487050
     211A      1.488075   212A      1.499211   213A      1.502846
     214A      1.518252   215A      1.572686   216A      1.574192
     217A      1.587836   218A      1.635982   219A      1.640505
     220A      1.648219   221A      1.659086   222A      1.676552
     223A      1.697912   224A      1.716991   225A      1.746597
     226A      1.755104   227A      1.783762   228A      1.815727
     229A      1.893323   230A      1.916137   231A      1.964829
     232A      1.987674   233A      2.031202   234A      2.070074
     235A      2.091548   236A      2.101028   237A      2.102612
     238A      2.119290   239A      2.142953   240A      2.156523
     241A      2.159036   242A      2.163355   243A      2.190488
     244A      2.193301   245A      2.194707   246A      2.200380
     247A      2.202410   248A      2.227626   249A      2.234622
     250A      2.241050   251A      2.249507   252A      2.309862
     253A      2.312761   254A      2.319394   255A      2.355229
     256A      2.384652   257A      2.419056   258A      2.430957
     259A      2.435259   260A      2.438013   261A      2.438977
     262A      2.472524   263A      2.486571   264A      2.498168
     265A      2.519379   266A      2.522395   267A      2.524914
     268A      2.545842   269A      2.568174   270A      2.584766
     271A      2.592219   272A      2.606266   273A      2.625819
     274A      2.665224   275A      2.675409   276A      2.686395
     277A      2.713985   278A      2.716745   279A      2.718591
     280A      2.726499   281A      2.767782   282A      2.844014
     283A      2.865761   284A      2.903884   285A      2.939196
     286A      2.947074   287A      2.955598   288A      2.973188
     289A      3.001855   290A      3.017872   291A      3.032186
     292A      3.058178   293A      3.065077   294A      3.094137
     295A      3.113716   296A      3.220316   297A      3.245577
     298A      3.255980   299A      3.284880   300A      3.289529
     301A      3.321809   302A      3.337589   303A      3.340335
     304A      3.348507   305A      3.351230   306A      3.366140
     307A      3.412478   308A      3.413367   309A      3.470633
     310A      3.501834   311A      3.514920   312A      3.521242
     313A      3.590655   314A      3.604316   315A      3.605524
     316A      3.627769   317A      3.700364   318A      3.818804
     319A      3.830567   320A      3.940848   321A      3.968975
     322A      3.977236   323A      4.011282   324A      4.194637
     325A      4.242130   326A      4.253485   327A      4.441868
     328A      4.546709   329A      4.579156   330A      4.867519
     331A      4.976023   332A      5.057732   333A      5.261591
     334A      5.316419   335A      5.630077   336A      5.691204
     337A      5.827027   338A      5.952512   339A      6.283708
     340A      6.306769   341A      6.453646   342A      6.631080
     343A     18.125597   344A     18.207859   345A     19.017454
     346A     19.342880   347A     25.286941   348A     25.374661

    Final Occupation by Irrep:
              A
    DOCC [    21 ]

  @DF-RHF Final Energy:  -262.63994485185157

   => Energetics <=

    Nuclear Repulsion Energy =            212.5517311104853491
    One-Electron Energy =                -775.4594096404291577
    Two-Electron Energy =                 300.2677336780922701
    Total Energy =                       -262.6399448518515669

Computation Completed


Properties will be evaluated at   0.000000,   0.000000,   0.000000 [a0]

Properties computed using the SCF density matrix

  Nuclear Dipole Moment: [e a0]
     X:    55.0814      Y:    41.1737      Z:    17.9034

  Electronic Dipole Moment: [e a0]
     X:   -55.0814      Y:   -41.1737      Z:   -17.9034

  Dipole Moment: [e a0]
     X:    -0.0000      Y:     0.0000      Z:    -0.0000     Total:     0.0000

  Dipole Moment: [D]
     X:    -0.0000      Y:     0.0000      Z:    -0.0000     Total:     0.0000


*** tstop() called on atl1-1-01-013-14-l.pace.gatech.edu at Mon Nov 29 16:11:09 2021
Module time:
	user time   =      16.32 seconds =       0.27 minutes
	system time =       0.49 seconds =       0.01 minutes
	total time  =          9 seconds =       0.15 minutes
Total time:
	user time   =      42.53 seconds =       0.71 minutes
	system time =       1.49 seconds =       0.02 minutes
	total time  =         24 seconds =       0.40 minutes

  //>>>>>>>>>>>>>>>>>>>>>>>>>>>>>>>>>>>//
  //            Monomer B HF           //
  //<<<<<<<<<<<<<<<<<<<<<<<<<<<<<<<<<<<//


*** tstart() called on atl1-1-01-013-14-l.pace.gatech.edu
*** at Mon Nov 29 16:11:09 2021

   => Loading Basis Set <=

    Name: AUG-CC-PVDZ
    Role: ORBITAL
    Keyword: BASIS
    atoms 1-2, 11-12  entry N          line   218 file /storage/home/hhive1/csargent30/data/miniconda3/envs/psi4/share/psi4/basis/aug-cc-pvdz.gbs
    atoms 3-6, 13-16  entry H          line    40 file /storage/home/hhive1/csargent30/data/miniconda3/envs/psi4/share/psi4/basis/aug-cc-pvdz.gbs
    atoms 7-10, 17-20 entry C          line   182 file /storage/home/hhive1/csargent30/data/miniconda3/envs/psi4/share/psi4/basis/aug-cc-pvdz.gbs


         ---------------------------------------------------------
                                   SCF
               by Justin Turney, Rob Parrish, Andy Simmonett
                          and Daniel G. A. Smith
                              RHF Reference
                        2 Threads,   6675 MiB Core
         ---------------------------------------------------------

  ==> Geometry <==

    Molecular point group: c1
    Full point group: C1

    Geometry (in Bohr), charge = 0, multiplicity = 1:

       Center              X                  Y                   Z               Mass
    ------------   -----------------  -----------------  -----------------  -----------------
      Gh(N)          -1.330847580000     0.980326580000     0.426270370000    14.003074004430
      Gh(N)           3.953773330000     0.980326580000     0.426270370000    14.003074004430
      Gh(H)           3.567136740000     4.352185690000    -0.942309730000     1.007825032230
      Gh(H)          -0.944210980000     4.352185690000    -0.942309730000     1.007825032230
      Gh(H)          -0.944210980000    -2.391532530000     1.794850470000     1.007825032230
      Gh(H)           3.567136740000    -2.391532530000     1.794850470000     1.007825032230
      Gh(C)           2.622925760000     2.940979740000    -0.426270370000    12.000000000000
      Gh(C)           0.000000000000     2.940979740000    -0.426270370000    12.000000000000
      Gh(C)           0.000000000000    -0.980326580000     1.278811120000    12.000000000000
      Gh(C)           2.622925760000    -0.980326580000     1.278811120000    12.000000000000
         N          -18.953299590000   -32.185500760000    21.589880170000    14.003074004430
         N          -13.668678680000   -32.185500760000    21.589880170000    14.003074004430
         H          -14.055315270000   -28.813641650000    20.221300070000     1.007825032230
         H          -18.566662990000   -28.813641650000    20.221300070000     1.007825032230
         H          -18.566662990000   -35.557359870000    22.958460270000     1.007825032230
         H          -14.055315270000   -35.557359870000    22.958460270000     1.007825032230
         C          -14.999526250000   -30.224847600000    20.737339420000    12.000000000000
         C          -17.622452010000   -30.224847600000    20.737339420000    12.000000000000
         C          -17.622452010000   -34.146153920000    22.442420920000    12.000000000000
         C          -14.999526250000   -34.146153920000    22.442420920000    12.000000000000

  Running in c1 symmetry.

  Rotational constants: A =      0.08054  B =      0.00042  C =      0.00042 [cm^-1]
  Rotational constants: A =   2414.42405  B =     12.68994  C =     12.63799 [MHz]
  Nuclear repulsion =  212.551731042300503

  Charge       = 0
  Multiplicity = 1
  Electrons    = 42
  Nalpha       = 21
  Nbeta        = 21

  ==> Algorithm <==

  SCF Algorithm Type is DF.
  DIIS enabled.
  MOM disabled.
  Fractional occupation disabled.
  Guess Type is SAD.
  Energy threshold   = 1.00e-10
  Density threshold  = 1.00e-10
  Integral threshold = 1.00e-12

  ==> Primary Basis <==

  Basis Set: AUG-CC-PVDZ
    Blend: AUG-CC-PVDZ
    Number of shells: 148
    Number of basis functions: 348
    Number of Cartesian functions: 372
    Spherical Harmonics?: true
    Max angular momentum: 2

   => Loading Basis Set <=

    Name: (AUG-CC-PVDZ AUX)
    Role: JKFIT
    Keyword: DF_BASIS_SCF
    atoms 1-2, 11-12  entry N          line   212 file /storage/home/hhive1/csargent30/data/miniconda3/envs/psi4/share/psi4/basis/aug-cc-pvdz-jkfit.gbs
    atoms 3-6, 13-16  entry H          line    70 file /storage/home/hhive1/csargent30/data/miniconda3/envs/psi4/share/psi4/basis/aug-cc-pvdz-jkfit.gbs
    atoms 7-10, 17-20 entry C          line   154 file /storage/home/hhive1/csargent30/data/miniconda3/envs/psi4/share/psi4/basis/aug-cc-pvdz-jkfit.gbs

  ==> Integral Setup <==

  ==> DiskDFJK: Density-Fitted J/K Matrices <==

    J tasked:                  Yes
    K tasked:                  Yes
    wK tasked:                  No
    OpenMP threads:              2
    Integrals threads:           2
    Memory [MiB]:             5006
    Algorithm:                Core
    Integral Cache:           LOAD
    Schwarz Cutoff:          1E-12
    Fitting Condition:       1E-10

   => Auxiliary Basis Set <=

  Basis Set: (AUG-CC-PVDZ AUX)
    Blend: AUG-CC-PVDZ-JKFIT
    Number of shells: 432
    Number of basis functions: 1288
    Number of Cartesian functions: 1492
    Spherical Harmonics?: true
    Max angular momentum: 3

  Minimum eigenvalue in the overlap matrix is 9.4898534831E-06.
  Reciprocal condition number of the overlap matrix is 7.4017745876E-07.
    Using symmetric orthogonalization.

  ==> Pre-Iterations <==

  SCF Guess: Superposition of Atomic Densities via on-the-fly atomic UHF (no occupation information).

   -------------------------
    Irrep   Nso     Nmo
   -------------------------
     A        348     348
   -------------------------
    Total     348     348
   -------------------------

  ==> Iterations <==

                           Total Energy        Delta E     RMS |[F,P]|

   @DF-RHF iter SAD:  -262.32523125023050   -2.62325e+02   0.00000e+00
   @DF-RHF iter   1:  -262.53940798031743   -2.14177e-01   1.11985e-03 DIIS
   @DF-RHF iter   2:  -262.62878837252759   -8.93804e-02   4.10664e-04 DIIS
   @DF-RHF iter   3:  -262.63862291703117   -9.83454e-03   1.28248e-04 DIIS
   @DF-RHF iter   4:  -262.63984767030394   -1.22475e-03   3.77599e-05 DIIS
   @DF-RHF iter   5:  -262.63993727076564   -8.96005e-05   7.55558e-06 DIIS
   @DF-RHF iter   6:  -262.63994382102624   -6.55026e-06   2.45264e-06 DIIS
   @DF-RHF iter   7:  -262.63994477339861   -9.52372e-07   6.40130e-07 DIIS
   @DF-RHF iter   8:  -262.63994484728693   -7.38883e-08   9.91693e-08 DIIS
   @DF-RHF iter   9:  -262.63994484927247   -1.98554e-09   1.88228e-08 DIIS
   @DF-RHF iter  10:  -262.63994484934381   -7.13385e-11   3.19151e-09 DIIS
   @DF-RHF iter  11:  -262.63994484934580   -1.98952e-12   5.22317e-10 DIIS
   @DF-RHF iter  12:  -262.63994484934614   -3.41061e-13   9.54391e-11 DIIS
  Energy and wave function converged.


  ==> Post-Iterations <==

    Orbital Energies [Eh]
    ---------------------

    Doubly Occupied:

       1A    -15.598072     2A    -15.598053     3A    -11.274239
       4A    -11.274194     5A    -11.272975     6A    -11.272969
       7A     -1.313347     8A     -1.224176     9A     -1.076803
      10A     -0.922662    11A     -0.919282    12A     -0.760637
      13A     -0.738402    14A     -0.706214    15A     -0.647687
      16A     -0.580711    17A     -0.574369    18A     -0.497113
      19A     -0.434288    20A     -0.415855    21A     -0.359924

    Virtual:

      22A      0.022281    23A      0.034497    24A      0.039354
      25A      0.040739    26A      0.041025    27A      0.048384
      28A      0.058591    29A      0.058694    30A      0.067113
      31A      0.079530    32A      0.084894    33A      0.099419
      34A      0.100948    35A      0.103839    36A      0.108360
      37A      0.108699    38A      0.114201    39A      0.114951
      40A      0.122346    41A      0.123776    42A      0.125322
      43A      0.125434    44A      0.128661    45A      0.130792
      46A      0.132889    47A      0.133994    48A      0.151949
      49A      0.152873    50A      0.158199    51A      0.159191
      52A      0.161084    53A      0.161326    54A      0.163914
      55A      0.175179    56A      0.176588    57A      0.186918
      58A      0.197646    59A      0.203751    60A      0.203908
      61A      0.206509    62A      0.212538    63A      0.222228
      64A      0.233457    65A      0.239283    66A      0.250517
      67A      0.255067    68A      0.267756    69A      0.270622
      70A      0.278056    71A      0.287812    72A      0.293207
      73A      0.295749    74A      0.302168    75A      0.314832
      76A      0.320457    77A      0.320483    78A      0.328003
      79A      0.331148    80A      0.343963    81A      0.355428
      82A      0.357908    83A      0.364661    84A      0.380343
      85A      0.382583    86A      0.385481    87A      0.398891
      88A      0.401117    89A      0.409895    90A      0.419116
      91A      0.424795    92A      0.425453    93A      0.433925
      94A      0.437212    95A      0.441778    96A      0.452092
      97A      0.460501    98A      0.460949    99A      0.471483
     100A      0.475931   101A      0.478664   102A      0.492140
     103A      0.504862   104A      0.507666   105A      0.514914
     106A      0.523610   107A      0.524547   108A      0.528668
     109A      0.535577   110A      0.554577   111A      0.557689
     112A      0.561359   113A      0.564339   114A      0.570535
     115A      0.581748   116A      0.587535   117A      0.591506
     118A      0.593799   119A      0.595853   120A      0.608929
     121A      0.614986   122A      0.620005   123A      0.636210
     124A      0.643517   125A      0.644321   126A      0.649200
     127A      0.651335   128A      0.679258   129A      0.685136
     130A      0.685159   131A      0.687758   132A      0.689932
     133A      0.690342   134A      0.694828   135A      0.703829
     136A      0.719734   137A      0.728237   138A      0.746558
     139A      0.746633   140A      0.754817   141A      0.766965
     142A      0.775527   143A      0.781406   144A      0.793476
     145A      0.799815   146A      0.802710   147A      0.810938
     148A      0.811822   149A      0.819016   150A      0.824596
     151A      0.831071   152A      0.847513   153A      0.847907
     154A      0.849029   155A      0.868450   156A      0.880544
     157A      0.886410   158A      0.887993   159A      0.894682
     160A      0.905949   161A      0.928957   162A      0.929272
     163A      0.939466   164A      0.947536   165A      0.949307
     166A      0.970625   167A      0.976779   168A      0.986481
     169A      0.996652   170A      0.998908   171A      1.013015
     172A      1.032264   173A      1.033370   174A      1.046774
     175A      1.051194   176A      1.076109   177A      1.089381
     178A      1.090122   179A      1.100445   180A      1.122199
     181A      1.124044   182A      1.130507   183A      1.134362
     184A      1.140110   185A      1.158740   186A      1.168434
     187A      1.170521   188A      1.173565   189A      1.192052
     190A      1.193085   191A      1.200318   192A      1.222161
     193A      1.235416   194A      1.238804   195A      1.250873
     196A      1.307402   197A      1.309674   198A      1.318106
     199A      1.326258   200A      1.329456   201A      1.331148
     202A      1.346652   203A      1.389059   204A      1.414282
     205A      1.448233   206A      1.451526   207A      1.455304
     208A      1.478978   209A      1.486137   210A      1.487050
     211A      1.488075   212A      1.499211   213A      1.502846
     214A      1.518252   215A      1.572686   216A      1.574192
     217A      1.587836   218A      1.635982   219A      1.640505
     220A      1.648219   221A      1.659086   222A      1.676552
     223A      1.697912   224A      1.716991   225A      1.746597
     226A      1.755104   227A      1.783762   228A      1.815727
     229A      1.893323   230A      1.916137   231A      1.964829
     232A      1.987674   233A      2.031202   234A      2.070074
     235A      2.091548   236A      2.101028   237A      2.102612
     238A      2.119290   239A      2.142953   240A      2.156523
     241A      2.159036   242A      2.163355   243A      2.190488
     244A      2.193301   245A      2.194707   246A      2.200380
     247A      2.202410   248A      2.227626   249A      2.234622
     250A      2.241050   251A      2.249507   252A      2.309862
     253A      2.312761   254A      2.319394   255A      2.355229
     256A      2.384652   257A      2.419056   258A      2.430957
     259A      2.435259   260A      2.438013   261A      2.438977
     262A      2.472524   263A      2.486571   264A      2.498168
     265A      2.519379   266A      2.522395   267A      2.524914
     268A      2.545842   269A      2.568174   270A      2.584766
     271A      2.592219   272A      2.606266   273A      2.625819
     274A      2.665224   275A      2.675409   276A      2.686395
     277A      2.713985   278A      2.716745   279A      2.718591
     280A      2.726499   281A      2.767782   282A      2.844014
     283A      2.865761   284A      2.903884   285A      2.939196
     286A      2.947074   287A      2.955598   288A      2.973188
     289A      3.001855   290A      3.017872   291A      3.032186
     292A      3.058178   293A      3.065077   294A      3.094137
     295A      3.113716   296A      3.220316   297A      3.245577
     298A      3.255980   299A      3.284880   300A      3.289529
     301A      3.321809   302A      3.337589   303A      3.340335
     304A      3.348507   305A      3.351230   306A      3.366140
     307A      3.412478   308A      3.413367   309A      3.470633
     310A      3.501834   311A      3.514920   312A      3.521242
     313A      3.590655   314A      3.604316   315A      3.605524
     316A      3.627769   317A      3.700364   318A      3.818804
     319A      3.830567   320A      3.940848   321A      3.968975
     322A      3.977236   323A      4.011282   324A      4.194637
     325A      4.242130   326A      4.253485   327A      4.441868
     328A      4.546709   329A      4.579156   330A      4.867519
     331A      4.976023   332A      5.057732   333A      5.261591
     334A      5.316419   335A      5.630077   336A      5.691204
     337A      5.827027   338A      5.952512   339A      6.283708
     340A      6.306769   341A      6.453646   342A      6.631080
     343A     18.125597   344A     18.207859   345A     19.017454
     346A     19.342880   347A     25.286941   348A     25.374661

    Final Occupation by Irrep:
              A
    DOCC [    21 ]

  @DF-RHF Final Energy:  -262.63994484934614

   => Energetics <=

    Nuclear Repulsion Energy =            212.5517310423005028
    One-Electron Energy =                -775.4594095027626963
    Two-Electron Energy =                 300.2677336111160571
    Total Energy =                       -262.6399448493461364

Computation Completed


Properties will be evaluated at   0.000000,   0.000000,   0.000000 [a0]

Properties computed using the SCF density matrix

  Nuclear Dipole Moment: [e a0]
     X:  -685.0615      Y: -1351.7910      Z:   906.7750

  Electronic Dipole Moment: [e a0]
     X:   685.0615      Y:  1351.7910      Z:  -906.7750

  Dipole Moment: [e a0]
     X:     0.0000      Y:    -0.0000      Z:     0.0000     Total:     0.0000

  Dipole Moment: [D]
     X:     0.0000      Y:    -0.0000      Z:     0.0000     Total:     0.0000


*** tstop() called on atl1-1-01-013-14-l.pace.gatech.edu at Mon Nov 29 16:11:18 2021
Module time:
	user time   =      16.22 seconds =       0.27 minutes
	system time =       0.50 seconds =       0.01 minutes
	total time  =          9 seconds =       0.15 minutes
Total time:
	user time   =      58.76 seconds =       0.98 minutes
	system time =       1.99 seconds =       0.03 minutes
	total time  =         33 seconds =       0.55 minutes
  Constructing Basis Sets for SAPT...

   => Loading Basis Set <=

    Name: (AUG-CC-PVDZ AUX)
    Role: RIFIT
    Keyword: DF_BASIS_SAPT
    atoms 1-2, 11-12  entry N          line   158 file /storage/home/hhive1/csargent30/data/miniconda3/envs/psi4/share/psi4/basis/aug-cc-pvdz-ri.gbs
    atoms 3-6, 13-16  entry H          line    30 file /storage/home/hhive1/csargent30/data/miniconda3/envs/psi4/share/psi4/basis/aug-cc-pvdz-ri.gbs
    atoms 7-10, 17-20 entry C          line   112 file /storage/home/hhive1/csargent30/data/miniconda3/envs/psi4/share/psi4/basis/aug-cc-pvdz-ri.gbs


  //>>>>>>>>>>>>>>>>>>>>>>>>>>>>>>>>>>>//
  //               SAPT0               //
  //<<<<<<<<<<<<<<<<<<<<<<<<<<<<<<<<<<<//


*** tstart() called on atl1-1-01-013-14-l.pace.gatech.edu
*** at Mon Nov 29 16:11:18 2021

        SAPT0
    Ed Hohenstein
     6 June 2009

      Orbital Information
  --------------------------
    NSO        =       348
    NMO        =       348
    NRI        =      1048
    NOCC A     =        21
    NOCC B     =        21
    FOCC A     =         6
    FOCC B     =         6
    NVIR A     =       327
    NVIR B     =       327

    Elst10,r            =     0.000000181934 [Eh]
    Exch10              =     0.000000000000 [Eh]
    Exch10 (S^2)        =     0.000000000000 [Eh]

    Iter     Energy [mEh]          dE [mEh]         Residual      Time [s]
       1      -0.00000136       0.000001358       0.013801725             1
       2      -0.00000121      -0.000000146       0.003108798             1
       3      -0.00000134       0.000000130       0.001128592             2
       4      -0.00000136       0.000000015       0.000452255             2
       5      -0.00000135      -0.000000003       0.000253174             2
       6      -0.00000135      -0.000000002       0.000097233             3
       7      -0.00000135       0.000000000       0.000039833             3
       8      -0.00000135       0.000000000       0.000010868             3
       9      -0.00000135      -0.000000000       0.000003701             4
      10      -0.00000135      -0.000000000       0.000001043             4
      11      -0.00000135       0.000000000       0.000000515             5

    CHF Iterations converged


    Iter     Energy [mEh]          dE [mEh]         Residual      Time [s]
       1      -0.00000136       0.000001358       0.013801726             0
       2      -0.00000121      -0.000000146       0.003108798             0
       3      -0.00000134       0.000000130       0.001128592             1
       4      -0.00000136       0.000000015       0.000452255             1
       5      -0.00000135      -0.000000003       0.000253174             1
       6      -0.00000135      -0.000000002       0.000097233             2
       7      -0.00000135       0.000000000       0.000039833             2
       8      -0.00000135       0.000000000       0.000010868             3
       9      -0.00000135      -0.000000000       0.000003701             3
      10      -0.00000135      -0.000000000       0.000001043             3
      11      -0.00000135       0.000000000       0.000000515             4

    CHF Iterations converged

    Ind20,r (A<-B)      =    -0.000000001353 [Eh]
    Ind20,r (B<-A)      =    -0.000000001353 [Eh]
    Ind20,r             =    -0.000000002705 [Eh]
    Exch-Ind20,r (A<-B) =     0.000000000000 [Eh]
    Exch-Ind20,r (B<-A) =     0.000000000000 [Eh]
    Exch-Ind20,r        =     0.000000000000 [Eh]
    Disp20              =    -0.000000313698 [Eh]
    Disp20 (SS)         =    -0.000000156849 [Eh]
    Disp20 (OS)         =    -0.000000156849 [Eh]
    Exch-Disp20         =     0.000000000000 [Eh]
    Exch-Disp20 (SS)    =     0.000000000000 [Eh]
    Exch-Disp20 (OS)    =     0.000000000000 [Eh]

    SAPT Results
  --------------------------------------------------------------------------------------------------------
    Electrostatics                  0.00018193 [mEh]       0.00011417 [kcal/mol]       0.00047767 [kJ/mol]
      Elst10,r                      0.00018193 [mEh]       0.00011417 [kcal/mol]       0.00047767 [kJ/mol]

    Exchange                        0.00000000 [mEh]       0.00000000 [kcal/mol]       0.00000000 [kJ/mol]
      Exch10                        0.00000000 [mEh]       0.00000000 [kcal/mol]       0.00000000 [kJ/mol]
      Exch10(S^2)                   0.00000000 [mEh]       0.00000000 [kcal/mol]       0.00000000 [kJ/mol]

    Induction                      -0.00000419 [mEh]      -0.00000263 [kcal/mol]      -0.00001100 [kJ/mol]
      Ind20,r                      -0.00000271 [mEh]      -0.00000170 [kcal/mol]      -0.00000710 [kJ/mol]
      Exch-Ind20,r                  0.00000000 [mEh]       0.00000000 [kcal/mol]       0.00000000 [kJ/mol]
      delta HF,r (2)               -0.00000149 [mEh]      -0.00000093 [kcal/mol]      -0.00000390 [kJ/mol]

    Dispersion                     -0.00031370 [mEh]      -0.00019685 [kcal/mol]      -0.00082361 [kJ/mol]
      Disp20                       -0.00031370 [mEh]      -0.00019685 [kcal/mol]      -0.00082361 [kJ/mol]
      Exch-Disp20                   0.00000000 [mEh]       0.00000000 [kcal/mol]       0.00000000 [kJ/mol]
      Disp20 (SS)                  -0.00015685 [mEh]      -0.00009842 [kcal/mol]      -0.00041181 [kJ/mol]
      Disp20 (OS)                  -0.00015685 [mEh]      -0.00009842 [kcal/mol]      -0.00041181 [kJ/mol]
      Exch-Disp20 (SS)              0.00000000 [mEh]       0.00000000 [kcal/mol]       0.00000000 [kJ/mol]
      Exch-Disp20 (OS)              0.00000000 [mEh]       0.00000000 [kcal/mol]       0.00000000 [kJ/mol]

  Total HF                          0.00017774 [mEh]       0.00011154 [kcal/mol]       0.00046667 [kJ/mol]
  Total SAPT0                      -0.00013595 [mEh]      -0.00008531 [kcal/mol]      -0.00035695 [kJ/mol]

  Special recipe for scaled SAPT0 (see Manual):
    Electrostatics sSAPT0           0.00018193 [mEh]       0.00011417 [kcal/mol]       0.00047767 [kJ/mol]
    Exchange sSAPT0                 0.00000000 [mEh]       0.00000000 [kcal/mol]       0.00000000 [kJ/mol]
    Induction sSAPT0               -0.00000419 [mEh]      -0.00000263 [kcal/mol]      -0.00001100 [kJ/mol]
    Dispersion sSAPT0              -0.00031370 [mEh]      -0.00019685 [kcal/mol]      -0.00082361 [kJ/mol]
  Total sSAPT0                     -0.00013595 [mEh]      -0.00008531 [kcal/mol]      -0.00035695 [kJ/mol]
  --------------------------------------------------------------------------------------------------------

*** tstop() called on atl1-1-01-013-14-l.pace.gatech.edu at Mon Nov 29 16:12:01 2021
Module time:
	user time   =      38.98 seconds =       0.65 minutes
	system time =       9.04 seconds =       0.15 minutes
	total time  =         43 seconds =       0.72 minutes
Total time:
	user time   =      98.00 seconds =       1.63 minutes
	system time =      11.03 seconds =       0.18 minutes
	total time  =         76 seconds =       1.27 minutes


Warning! sapt0 does not have an associated derived wavefunction.The returned wavefunction is the dimer SCF wavefunction.


    Psi4 stopped on: Monday, 29 November 2021 04:12PM
    Psi4 wall time for execution: 0:01:16.09

*** Psi4 exiting successfully. Buy a developer a beer!
