
    -----------------------------------------------------------------------
          Psi4: An Open-Source Ab Initio Electronic Structure Package
                               Psi4 1.4.1 release

                         Git: Rev {HEAD} cd00f19


    D. G. A. Smith, L. A. Burns, A. C. Simmonett, R. M. Parrish,
    M. C. Schieber, R. Galvelis, P. Kraus, H. Kruse, R. Di Remigio,
    A. Alenaizan, A. M. James, S. Lehtola, J. P. Misiewicz, M. Scheurer,
    R. A. Shaw, J. B. Schriber, Y. Xie, Z. L. Glick, D. A. Sirianni,
    J. S. O'Brien, J. M. Waldrop, A. Kumar, E. G. Hohenstein,
    B. P. Pritchard, B. R. Brooks, H. F. Schaefer III, A. Yu. Sokolov,
    K. Patkowski, A. E. DePrince III, U. Bozkaya, R. A. King,
    F. A. Evangelista, J. M. Turney, T. D. Crawford, C. D. Sherrill,
    J. Chem. Phys. 152(18) 184108 (2020). https://doi.org/10.1063/5.0006002

                            Additional Code Authors
    E. T. Seidl, C. L. Janssen, E. F. Valeev, M. L. Leininger,
    J. F. Gonthier, R. M. Richard, H. R. McAlexander, M. Saitow, X. Wang,
    P. Verma, and M. H. Lechner

             Previous Authors, Complete List of Code Contributors,
                       and Citations for Specific Modules
    https://github.com/psi4/psi4/blob/master/codemeta.json
    https://github.com/psi4/psi4/graphs/contributors
    http://psicode.org/psi4manual/master/introduction.html#citing-psifour

    -----------------------------------------------------------------------


    Psi4 started on: Monday, 29 November 2021 04:10PM

    Process ID: 1937
    Host:       atl1-1-01-013-21-r.pace.gatech.edu
    PSIDATADIR: /storage/home/hhive1/csargent30/data/miniconda3/envs/psi4/share/psi4
    Memory:     500.0 MiB
    Threads:    2

  ==> Input File <==

--------------------------------------------------------------------------
# PSI4 file produced by CrystaLattE

# Generated from:               pyrazine.xyz
# Psithon input for N-mer:      2mer-0+90
# Number of atoms per monomer:  [10, 10]
# Number of replicas:           4
# COM priority:                 6.296418252424e-05
# Minimum COM separations:      13.302
# Separation priority:          1.011926266514e-04
# Minimum monomer separations:  11.356
# Cutoff priority:              4.715544258510e-06
# Nuclear repulsion energy:     495.08526514470253

memory 7 GB

molecule Dimer_0_90 {
  N           -1.33084758       0.98032658       0.42627037
  N            3.95377333       0.98032658       0.42627037
  H            3.56713674       4.35218569      -0.94230973
  H           -0.94421098       4.35218569      -0.94230973
  H           -0.94421098      -2.39153253       1.79485047
  H            3.56713674      -2.39153253       1.79485047
  C            2.62292576       2.94097974      -0.42627037
  C            0.00000000       2.94097974      -0.42627037
  C            0.00000000      -0.98032658       1.27881112
  C            2.62292576      -0.98032658       1.27881112
--
  N          -18.95329959     -10.07494920     -13.68280282
  N          -13.66867868     -10.07494920     -13.68280282
  H          -14.05531527      -6.70309009     -15.05138292
  H          -18.56666299      -6.70309009     -15.05138292
  H          -18.56666299     -13.44680831     -12.31422272
  H          -14.05531527     -13.44680831     -12.31422272
  C          -14.99952625      -8.11429604     -14.53534357
  C          -17.62245201      -8.11429604     -14.53534357
  C          -17.62245201     -12.03560236     -12.83026208
  C          -14.99952625     -12.03560236     -12.83026208
units = au
no_com
no_reorient
}

set {
  e_convergence 10
  d_convergence 10
  scf_type df
  mp2_type df
  cc_type df
  freeze_core true
}

energy('sapt0/aug-cc-pvdz')

--------------------------------------------------------------------------

  Memory set to   6.519 GiB by Python driver.

Scratch directory: /tmp/

Scratch directory: /tmp/

  //>>>>>>>>>>>>>>>>>>>>>>>>>>>>>>>>>>>//
  //              Dimer HF             //
  //<<<<<<<<<<<<<<<<<<<<<<<<<<<<<<<<<<<//


*** tstart() called on atl1-1-01-013-21-r.pace.gatech.edu
*** at Mon Nov 29 16:10:40 2021

   => Loading Basis Set <=

    Name: AUG-CC-PVDZ
    Role: ORBITAL
    Keyword: BASIS
    atoms 1-2, 11-12  entry N          line   218 file /storage/home/hhive1/csargent30/data/miniconda3/envs/psi4/share/psi4/basis/aug-cc-pvdz.gbs
    atoms 3-6, 13-16  entry H          line    40 file /storage/home/hhive1/csargent30/data/miniconda3/envs/psi4/share/psi4/basis/aug-cc-pvdz.gbs
    atoms 7-10, 17-20 entry C          line   182 file /storage/home/hhive1/csargent30/data/miniconda3/envs/psi4/share/psi4/basis/aug-cc-pvdz.gbs


         ---------------------------------------------------------
                                   SCF
               by Justin Turney, Rob Parrish, Andy Simmonett
                          and Daniel G. A. Smith
                              RHF Reference
                        2 Threads,   6675 MiB Core
         ---------------------------------------------------------

  ==> Geometry <==

    Molecular point group: c1
    Full point group: C1

    Geometry (in Bohr), charge = 0, multiplicity = 1:

       Center              X                  Y                   Z               Mass
    ------------   -----------------  -----------------  -----------------  -----------------
         N           -1.330847580000     0.980326580000     0.426270370000    14.003074004430
         N            3.953773330000     0.980326580000     0.426270370000    14.003074004430
         H            3.567136740000     4.352185690000    -0.942309730000     1.007825032230
         H           -0.944210980000     4.352185690000    -0.942309730000     1.007825032230
         H           -0.944210980000    -2.391532530000     1.794850470000     1.007825032230
         H            3.567136740000    -2.391532530000     1.794850470000     1.007825032230
         C            2.622925760000     2.940979740000    -0.426270370000    12.000000000000
         C            0.000000000000     2.940979740000    -0.426270370000    12.000000000000
         C            0.000000000000    -0.980326580000     1.278811120000    12.000000000000
         C            2.622925760000    -0.980326580000     1.278811120000    12.000000000000
         N          -18.953299590000   -10.074949200000   -13.682802820000    14.003074004430
         N          -13.668678680000   -10.074949200000   -13.682802820000    14.003074004430
         H          -14.055315270000    -6.703090090000   -15.051382920000     1.007825032230
         H          -18.566662990000    -6.703090090000   -15.051382920000     1.007825032230
         H          -18.566662990000   -13.446808310000   -12.314222720000     1.007825032230
         H          -14.055315270000   -13.446808310000   -12.314222720000     1.007825032230
         C          -14.999526250000    -8.114296040000   -14.535343570000    12.000000000000
         C          -17.622452010000    -8.114296040000   -14.535343570000    12.000000000000
         C          -17.622452010000   -12.035602360000   -12.830262080000    12.000000000000
         C          -14.999526250000   -12.035602360000   -12.830262080000    12.000000000000

  Running in c1 symmetry.

  Rotational constants: A =      0.06925  B =      0.00133  C =      0.00132 [cm^-1]
  Rotational constants: A =   2075.94963  B =     39.91684  C =     39.69342 [MHz]
  Nuclear repulsion =  495.085265145383801

  Charge       = 0
  Multiplicity = 1
  Electrons    = 84
  Nalpha       = 42
  Nbeta        = 42

  ==> Algorithm <==

  SCF Algorithm Type is DF.
  DIIS enabled.
  MOM disabled.
  Fractional occupation disabled.
  Guess Type is SAD.
  Energy threshold   = 1.00e-10
  Density threshold  = 1.00e-10
  Integral threshold = 1.00e-12

  ==> Primary Basis <==

  Basis Set: AUG-CC-PVDZ
    Blend: AUG-CC-PVDZ
    Number of shells: 148
    Number of basis functions: 348
    Number of Cartesian functions: 372
    Spherical Harmonics?: true
    Max angular momentum: 2

   => Loading Basis Set <=

    Name: (AUG-CC-PVDZ AUX)
    Role: JKFIT
    Keyword: DF_BASIS_SCF
    atoms 1-2, 11-12  entry N          line   212 file /storage/home/hhive1/csargent30/data/miniconda3/envs/psi4/share/psi4/basis/aug-cc-pvdz-jkfit.gbs
    atoms 3-6, 13-16  entry H          line    70 file /storage/home/hhive1/csargent30/data/miniconda3/envs/psi4/share/psi4/basis/aug-cc-pvdz-jkfit.gbs
    atoms 7-10, 17-20 entry C          line   154 file /storage/home/hhive1/csargent30/data/miniconda3/envs/psi4/share/psi4/basis/aug-cc-pvdz-jkfit.gbs

  ==> Integral Setup <==

  ==> DiskDFJK: Density-Fitted J/K Matrices <==

    J tasked:                  Yes
    K tasked:                  Yes
    wK tasked:                  No
    OpenMP threads:              2
    Integrals threads:           2
    Memory [MiB]:             5006
    Algorithm:                Core
    Integral Cache:           SAVE
    Schwarz Cutoff:          1E-12
    Fitting Condition:       1E-10

   => Auxiliary Basis Set <=

  Basis Set: (AUG-CC-PVDZ AUX)
    Blend: AUG-CC-PVDZ-JKFIT
    Number of shells: 432
    Number of basis functions: 1288
    Number of Cartesian functions: 1492
    Spherical Harmonics?: true
    Max angular momentum: 3

  Minimum eigenvalue in the overlap matrix is 9.4567961989E-06.
  Reciprocal condition number of the overlap matrix is 7.3759435701E-07.
    Using symmetric orthogonalization.

  ==> Pre-Iterations <==

  SCF Guess: Superposition of Atomic Densities via on-the-fly atomic UHF (no occupation information).

   -------------------------
    Irrep   Nso     Nmo
   -------------------------
     A        348     348
   -------------------------
    Total     348     348
   -------------------------

  ==> Iterations <==

                           Total Energy        Delta E     RMS |[F,P]|

   @DF-RHF iter SAD:  -524.65046252839522   -5.24650e+02   0.00000e+00
   @DF-RHF iter   1:  -525.07880470804491   -4.28342e-01   1.58374e-03 DIIS
   @DF-RHF iter   2:  -525.25756721524328   -1.78763e-01   5.80807e-04 DIIS
   @DF-RHF iter   3:  -525.27723847048992   -1.96713e-02   1.81381e-04 DIIS
   @DF-RHF iter   4:  -525.27968816113935   -2.44969e-03   5.34063e-05 DIIS
   @DF-RHF iter   5:  -525.27986739482299   -1.79234e-04   1.06836e-05 DIIS
   @DF-RHF iter   6:  -525.27988049378257   -1.30990e-05   3.46847e-06 DIIS
   @DF-RHF iter   7:  -525.27988239845922   -1.90468e-06   9.05566e-07 DIIS
   @DF-RHF iter   8:  -525.27988254620709   -1.47748e-07   1.44239e-07 DIIS
   @DF-RHF iter   9:  -525.27988255014498   -3.93788e-09   4.87603e-08 DIIS
   @DF-RHF iter  10:  -525.27988255036030   -2.15323e-10   2.05091e-08 DIIS
   @DF-RHF iter  11:  -525.27988255040452   -4.42242e-11   2.82017e-09 DIIS
   @DF-RHF iter  12:  -525.27988255040532   -7.95808e-13   1.06361e-09 DIIS
   @DF-RHF iter  13:  -525.27988255040566   -3.41061e-13   3.59954e-10 DIIS
   @DF-RHF iter  14:  -525.27988255040680   -1.13687e-12   8.36607e-11 DIIS
  Energy and wave function converged.


  ==> Post-Iterations <==

    Orbital Energies [Eh]
    ---------------------

    Doubly Occupied:

       1A    -15.597825     2A    -15.597825     3A    -15.597802
       4A    -15.597802     5A    -11.273994     6A    -11.273994
       7A    -11.273945     8A    -11.273945     9A    -11.272735
      10A    -11.272735    11A    -11.272715    12A    -11.272715
      13A     -1.313097    14A     -1.313097    15A     -1.223926
      16A     -1.223926    17A     -1.076556    18A     -1.076556
      19A     -0.922416    20A     -0.922416    21A     -0.919036
      22A     -0.919036    23A     -0.760390    24A     -0.760390
      25A     -0.738158    26A     -0.738158    27A     -0.705966
      28A     -0.705966    29A     -0.647442    30A     -0.647442
      31A     -0.580465    32A     -0.580465    33A     -0.574118
      34A     -0.574118    35A     -0.496863    36A     -0.496863
      37A     -0.434036    38A     -0.434036    39A     -0.415608
      40A     -0.415607    41A     -0.359675    42A     -0.359675

    Virtual:

      43A      0.034044    44A      0.035185    45A      0.040676
      46A      0.041152    47A      0.046909    48A      0.050326
      49A      0.058093    50A      0.059536    51A      0.067353
      52A      0.067404    53A      0.099648    54A      0.099675
      55A      0.101116    56A      0.101230    57A      0.114162
      58A      0.114488    59A      0.114633    60A      0.115884
      61A      0.123764    62A      0.124299    63A      0.125560
      64A      0.125616    65A      0.128714    66A      0.129042
      67A      0.133133    68A      0.133157    69A      0.157674
      70A      0.158141    71A      0.159266    72A      0.161130
      73A      0.161854    74A      0.162059    75A      0.162918
      76A      0.168337    77A      0.174815    78A      0.176442
      79A      0.187048    80A      0.187377    81A      0.204160
      82A      0.204183    83A      0.212761    84A      0.212842
      85A      0.250783    86A      0.250788    87A      0.267988
      88A      0.268011    89A      0.278086    90A      0.278525
      91A      0.287721    92A      0.288455    93A      0.293308
      94A      0.293587    95A      0.295554    96A      0.296551
      97A      0.314949    98A      0.315176    99A      0.320442
     100A      0.321073   101A      0.355599   102A      0.355729
     103A      0.358159   104A      0.358166   105A      0.364896
     106A      0.364920   107A      0.381554   108A      0.384270
     109A      0.398678   110A      0.399752   111A      0.410014
     112A      0.410265   113A      0.424911   114A      0.426542
     115A      0.434168   116A      0.434174   117A      0.437150
     118A      0.437826   119A      0.451702   120A      0.453138
     121A      0.471686   122A      0.471810   123A      0.492243
     124A      0.492588   125A      0.505103   126A      0.505114
     127A      0.515161   128A      0.515186   129A      0.524774
     130A      0.524800   131A      0.528202   132A      0.529864
     133A      0.554810   134A      0.554835   135A      0.570744
     136A      0.570810   137A      0.587752   138A      0.587822
     139A      0.591582   140A      0.591981   141A      0.594028
     142A      0.594079   143A      0.609129   144A      0.609201
     145A      0.643651   146A      0.643871   147A      0.644568
     148A      0.644569   149A      0.685375   150A      0.685393
     151A      0.687995   152A      0.688019   153A      0.690035
     154A      0.690251   155A      0.690623   156A      0.690662
     157A      0.695056   158A      0.695076   159A      0.704007
     160A      0.704165   161A      0.746662   162A      0.746928
     163A      0.755059   164A      0.755060   165A      0.766814
     166A      0.767702   167A      0.781449   168A      0.781928
     169A      0.799914   170A      0.800229   171A      0.802818
     172A      0.803157   173A      0.819248   174A      0.819301
     175A      0.831318   176A      0.831337   177A      0.847419
     178A      0.848154   179A      0.880782   180A      0.880794
     181A      0.886634   182A      0.886674   183A      0.894936
     184A      0.894940   185A      0.929470   186A      0.929557
     187A      0.939239   188A      0.940330   189A      0.949495
     190A      0.949614   191A      0.996574   192A      0.997232
     193A      0.999071   194A      0.999335   195A      1.013265
     196A      1.013266   197A      1.033479   198A      1.033794
     199A      1.051448   200A      1.051457   201A      1.089623
     202A      1.089635   203A      1.100689   204A      1.100697
     205A      1.122311   206A      1.122595   207A      1.124279
     208A      1.124330   209A      1.134390   210A      1.134877
     211A      1.158739   212A      1.159295   213A      1.173772
     214A      1.173868   215A      1.235626   216A      1.235704
     217A      1.238992   218A      1.239104   219A      1.309912
     220A      1.309936   221A      1.331361   222A      1.331443
     223A      1.414505   224A      1.414553   225A      1.451744
     226A      1.451813   227A      1.486356   228A      1.486409
     229A      1.488075   230A      1.488602   231A      1.499296
     232A      1.499641   233A      1.502982   234A      1.503242
     235A      1.518443   236A      1.518570   237A      1.572922
     238A      1.572951   239A      1.574207   240A      1.574705
     241A      1.587783   242A      1.588452   243A      1.636175
     244A      1.636282   245A      1.640743   246A      1.640756
     247A      1.647873   248A      1.649231   249A      1.676736
     250A      1.676873   251A      1.717246   252A      1.717247
     253A      1.746841   254A      1.746857   255A      1.755345
     256A      1.755364   257A      1.783645   258A      1.784457
     259A      1.815970   260A      1.815982   261A      1.893569
     262A      1.893571   263A      1.916379   264A      1.916385
     265A      1.965037   266A      1.965125   267A      1.987917
     268A      1.987932   269A      2.031447   270A      2.031448
     271A      2.091785   272A      2.091807   273A      2.101042
     274A      2.101540   275A      2.142933   276A      2.143518
     277A      2.163475   278A      2.163768   279A      2.190719
     280A      2.190747   281A      2.193241   282A      2.193891
     283A      2.200591   284A      2.200665   285A      2.202643
     286A      2.202672   287A      2.227810   288A      2.227954
     289A      2.312798   290A      2.313268   291A      2.355394
     292A      2.355564   293A      2.431174   294A      2.431238
     295A      2.439085   296A      2.439400   297A      2.519603
     298A      2.519649   299A      2.522638   300A      2.522645
     301A      2.584842   302A      2.585243   303A      2.606513
     304A      2.606515   305A      2.665464   306A      2.665477
     307A      2.675657   308A      2.675660   309A      2.686608
     310A      2.686692   311A      2.713930   312A      2.714609
     313A      2.718734   314A      2.718958   315A      2.844264
     316A      2.844265   317A      2.866008   318A      2.866011
     319A      2.939425   320A      2.939463   321A      3.002093
     322A      3.002109   323A      3.018101   324A      3.018143
     325A      3.032400   326A      3.032470   327A      3.094350
     328A      3.094419   329A      3.220129   330A      3.221082
     331A      3.256222   332A      3.256229   333A      3.285071
     334A      3.285193   335A      3.366375   336A      3.366402
     337A      3.413604   338A      3.413617   339A      3.515124
     340A      3.515212   341A      3.590893   342A      3.590908
     343A      3.627868   344A      3.628201   345A      3.977354
     346A      3.977632   347A      4.253715   348A      4.253752

    Final Occupation by Irrep:
              A
    DOCC [    42 ]

  @DF-RHF Final Energy:  -525.27988255040680

   => Energetics <=

    Nuclear Repulsion Energy =            495.0852651453838007
    One-Electron Energy =               -1690.9032304449847288
    Two-Electron Energy =                 670.5380827491941318
    Total Energy =                       -525.2798825504067963

Computation Completed


Properties will be evaluated at   0.000000,   0.000000,   0.000000 [a0]

Properties computed using the SCF density matrix

  Nuclear Dipole Moment: [e a0]
     X:  -629.9801      Y:  -381.9742      Z:  -556.7744

  Electronic Dipole Moment: [e a0]
     X:   629.9801      Y:   381.9742      Z:   556.7744

  Dipole Moment: [e a0]
     X:     0.0000      Y:    -0.0000      Z:     0.0000     Total:     0.0000

  Dipole Moment: [D]
     X:     0.0000      Y:    -0.0000      Z:     0.0000     Total:     0.0000


*** tstop() called on atl1-1-01-013-21-r.pace.gatech.edu at Mon Nov 29 16:10:53 2021
Module time:
	user time   =      24.78 seconds =       0.41 minutes
	system time =       1.01 seconds =       0.02 minutes
	total time  =         13 seconds =       0.22 minutes
Total time:
	user time   =      24.78 seconds =       0.41 minutes
	system time =       1.01 seconds =       0.02 minutes
	total time  =         13 seconds =       0.22 minutes

  //>>>>>>>>>>>>>>>>>>>>>>>>>>>>>>>>>>>//
  //            Monomer A HF           //
  //<<<<<<<<<<<<<<<<<<<<<<<<<<<<<<<<<<<//


*** tstart() called on atl1-1-01-013-21-r.pace.gatech.edu
*** at Mon Nov 29 16:10:53 2021

   => Loading Basis Set <=

    Name: AUG-CC-PVDZ
    Role: ORBITAL
    Keyword: BASIS
    atoms 1-2, 11-12  entry N          line   218 file /storage/home/hhive1/csargent30/data/miniconda3/envs/psi4/share/psi4/basis/aug-cc-pvdz.gbs
    atoms 3-6, 13-16  entry H          line    40 file /storage/home/hhive1/csargent30/data/miniconda3/envs/psi4/share/psi4/basis/aug-cc-pvdz.gbs
    atoms 7-10, 17-20 entry C          line   182 file /storage/home/hhive1/csargent30/data/miniconda3/envs/psi4/share/psi4/basis/aug-cc-pvdz.gbs


         ---------------------------------------------------------
                                   SCF
               by Justin Turney, Rob Parrish, Andy Simmonett
                          and Daniel G. A. Smith
                              RHF Reference
                        2 Threads,   6675 MiB Core
         ---------------------------------------------------------

  ==> Geometry <==

    Molecular point group: c1
    Full point group: C1

    Geometry (in Bohr), charge = 0, multiplicity = 1:

       Center              X                  Y                   Z               Mass
    ------------   -----------------  -----------------  -----------------  -----------------
         N           -1.330847580000     0.980326580000     0.426270370000    14.003074004430
         N            3.953773330000     0.980326580000     0.426270370000    14.003074004430
         H            3.567136740000     4.352185690000    -0.942309730000     1.007825032230
         H           -0.944210980000     4.352185690000    -0.942309730000     1.007825032230
         H           -0.944210980000    -2.391532530000     1.794850470000     1.007825032230
         H            3.567136740000    -2.391532530000     1.794850470000     1.007825032230
         C            2.622925760000     2.940979740000    -0.426270370000    12.000000000000
         C            0.000000000000     2.940979740000    -0.426270370000    12.000000000000
         C            0.000000000000    -0.980326580000     1.278811120000    12.000000000000
         C            2.622925760000    -0.980326580000     1.278811120000    12.000000000000
      Gh(N)         -18.953299590000   -10.074949200000   -13.682802820000    14.003074004430
      Gh(N)         -13.668678680000   -10.074949200000   -13.682802820000    14.003074004430
      Gh(H)         -14.055315270000    -6.703090090000   -15.051382920000     1.007825032230
      Gh(H)         -18.566662990000    -6.703090090000   -15.051382920000     1.007825032230
      Gh(H)         -18.566662990000   -13.446808310000   -12.314222720000     1.007825032230
      Gh(H)         -14.055315270000   -13.446808310000   -12.314222720000     1.007825032230
      Gh(C)         -14.999526250000    -8.114296040000   -14.535343570000    12.000000000000
      Gh(C)         -17.622452010000    -8.114296040000   -14.535343570000    12.000000000000
      Gh(C)         -17.622452010000   -12.035602360000   -12.830262080000    12.000000000000
      Gh(C)         -14.999526250000   -12.035602360000   -12.830262080000    12.000000000000

  Running in c1 symmetry.

  Rotational constants: A =      0.06925  B =      0.00133  C =      0.00132 [cm^-1]
  Rotational constants: A =   2075.94963  B =     39.91684  C =     39.69342 [MHz]
  Nuclear repulsion =  212.551731110485349

  Charge       = 0
  Multiplicity = 1
  Electrons    = 42
  Nalpha       = 21
  Nbeta        = 21

  ==> Algorithm <==

  SCF Algorithm Type is DF.
  DIIS enabled.
  MOM disabled.
  Fractional occupation disabled.
  Guess Type is SAD.
  Energy threshold   = 1.00e-10
  Density threshold  = 1.00e-10
  Integral threshold = 1.00e-12

  ==> Primary Basis <==

  Basis Set: AUG-CC-PVDZ
    Blend: AUG-CC-PVDZ
    Number of shells: 148
    Number of basis functions: 348
    Number of Cartesian functions: 372
    Spherical Harmonics?: true
    Max angular momentum: 2

   => Loading Basis Set <=

    Name: (AUG-CC-PVDZ AUX)
    Role: JKFIT
    Keyword: DF_BASIS_SCF
    atoms 1-2, 11-12  entry N          line   212 file /storage/home/hhive1/csargent30/data/miniconda3/envs/psi4/share/psi4/basis/aug-cc-pvdz-jkfit.gbs
    atoms 3-6, 13-16  entry H          line    70 file /storage/home/hhive1/csargent30/data/miniconda3/envs/psi4/share/psi4/basis/aug-cc-pvdz-jkfit.gbs
    atoms 7-10, 17-20 entry C          line   154 file /storage/home/hhive1/csargent30/data/miniconda3/envs/psi4/share/psi4/basis/aug-cc-pvdz-jkfit.gbs

  ==> Integral Setup <==

  ==> DiskDFJK: Density-Fitted J/K Matrices <==

    J tasked:                  Yes
    K tasked:                  Yes
    wK tasked:                  No
    OpenMP threads:              2
    Integrals threads:           2
    Memory [MiB]:             5006
    Algorithm:                Core
    Integral Cache:           LOAD
    Schwarz Cutoff:          1E-12
    Fitting Condition:       1E-10

   => Auxiliary Basis Set <=

  Basis Set: (AUG-CC-PVDZ AUX)
    Blend: AUG-CC-PVDZ-JKFIT
    Number of shells: 432
    Number of basis functions: 1288
    Number of Cartesian functions: 1492
    Spherical Harmonics?: true
    Max angular momentum: 3

  Minimum eigenvalue in the overlap matrix is 9.4567961989E-06.
  Reciprocal condition number of the overlap matrix is 7.3759435701E-07.
    Using symmetric orthogonalization.

  ==> Pre-Iterations <==

  SCF Guess: Superposition of Atomic Densities via on-the-fly atomic UHF (no occupation information).

   -------------------------
    Irrep   Nso     Nmo
   -------------------------
     A        348     348
   -------------------------
    Total     348     348
   -------------------------

  ==> Iterations <==

                           Total Energy        Delta E     RMS |[F,P]|

   @DF-RHF iter SAD:  -262.32523126301004   -2.62325e+02   0.00000e+00
   @DF-RHF iter   1:  -262.53940807347038   -2.14177e-01   1.11985e-03 DIIS
   @DF-RHF iter   2:  -262.62878848278496   -8.93804e-02   4.10664e-04 DIIS
   @DF-RHF iter   3:  -262.63862302915362   -9.83455e-03   1.28248e-04 DIIS
   @DF-RHF iter   4:  -262.63984778210943   -1.22475e-03   3.77599e-05 DIIS
   @DF-RHF iter   5:  -262.63993738257398   -8.96005e-05   7.55558e-06 DIIS
   @DF-RHF iter   6:  -262.63994393283537   -6.55026e-06   2.45264e-06 DIIS
   @DF-RHF iter   7:  -262.63994488520950   -9.52374e-07   6.40130e-07 DIIS
   @DF-RHF iter   8:  -262.63994495909748   -7.38880e-08   9.91693e-08 DIIS
   @DF-RHF iter   9:  -262.63994496108387   -1.98639e-09   1.88228e-08 DIIS
   @DF-RHF iter  10:  -262.63994496115401   -7.01448e-11   3.19151e-09 DIIS
   @DF-RHF iter  11:  -262.63994496115583   -1.81899e-12   5.22388e-10 DIIS
   @DF-RHF iter  12:  -262.63994496115606   -2.27374e-13   9.61748e-11 DIIS
  Energy and wave function converged.


  ==> Post-Iterations <==

    Orbital Energies [Eh]
    ---------------------

    Doubly Occupied:

       1A    -15.598072     2A    -15.598053     3A    -11.274239
       4A    -11.274194     5A    -11.272975     6A    -11.272969
       7A     -1.313347     8A     -1.224176     9A     -1.076803
      10A     -0.922662    11A     -0.919282    12A     -0.760637
      13A     -0.738402    14A     -0.706214    15A     -0.647687
      16A     -0.580711    17A     -0.574369    18A     -0.497113
      19A     -0.434288    20A     -0.415855    21A     -0.359924

    Virtual:

      22A      0.022547    23A      0.034346    24A      0.039572
      25A      0.040526    26A      0.041336    27A      0.048641
      28A      0.058033    29A      0.059556    30A      0.067114
      31A      0.079894    32A      0.085193    33A      0.099414
      34A      0.100847    35A      0.104076    36A      0.108572
      37A      0.108934    38A      0.114227    39A      0.115170
      40A      0.122687    41A      0.123759    42A      0.125304
      43A      0.125773    44A      0.128673    45A      0.131161
      46A      0.132889    47A      0.134281    48A      0.152095
      49A      0.152473    50A      0.158282    51A      0.159485
      52A      0.161370    53A      0.161533    54A      0.164735
      55A      0.175138    56A      0.177177    57A      0.186939
      58A      0.198148    59A      0.203903    60A      0.204136
      61A      0.206850    62A      0.212542    63A      0.222593
      64A      0.233814    65A      0.239618    66A      0.250519
      67A      0.255484    68A      0.267758    69A      0.270938
      70A      0.278102    71A      0.287854    72A      0.293243
      73A      0.295786    74A      0.302493    75A      0.314828
      76A      0.320302    77A      0.320993    78A      0.328342
      79A      0.331576    80A      0.344293    81A      0.355448
      82A      0.357912    83A      0.364662    84A      0.379967
      85A      0.383494    86A      0.385892    87A      0.398974
      88A      0.401485    89A      0.409912    90A      0.419412
      91A      0.425065    92A      0.425633    93A      0.433929
      94A      0.437244    95A      0.442125    96A      0.452174
      97A      0.460834    98A      0.461312    99A      0.471478
     100A      0.476280   101A      0.479006   102A      0.492165
     103A      0.504863   104A      0.507995   105A      0.514915
     106A      0.523884   107A      0.524549   108A      0.528851
     109A      0.535902   110A      0.554577   111A      0.558015
     112A      0.561685   113A      0.564669   114A      0.570535
     115A      0.582124   116A      0.587553   117A      0.591530
     118A      0.593802   119A      0.596161   120A      0.608930
     121A      0.615360   122A      0.620399   123A      0.636543
     124A      0.643530   125A      0.644331   126A      0.649522
     127A      0.651664   128A      0.679574   129A      0.685137
     130A      0.685493   131A      0.687759   132A      0.689949
     133A      0.690358   134A      0.694831   135A      0.703849
     136A      0.720055   137A      0.728574   138A      0.746443
     139A      0.747160   140A      0.754817   141A      0.767027
     142A      0.775862   143A      0.781423   144A      0.793803
     145A      0.799807   146A      0.802725   147A      0.811423
     148A      0.812149   149A      0.819019   150A      0.824928
     151A      0.831074   152A      0.847540   153A      0.848248
     154A      0.849371   155A      0.868781   156A      0.880544
     157A      0.886413   158A      0.888323   159A      0.894683
     160A      0.906299   161A      0.929265   162A      0.929294
     163A      0.939537   164A      0.947885   165A      0.949318
     166A      0.970957   167A      0.977114   168A      0.986810
     169A      0.996688   170A      0.998927   171A      1.013015
     172A      1.032587   173A      1.033386   174A      1.047126
     175A      1.051201   176A      1.076442   177A      1.089381
     178A      1.090456   179A      1.100446   180A      1.122198
     181A      1.124045   182A      1.130862   183A      1.134393
     184A      1.140485   185A      1.158769   186A      1.168774
     187A      1.170850   188A      1.173568   189A      1.192497
     190A      1.193421   191A      1.200662   192A      1.222485
     193A      1.235420   194A      1.238808   195A      1.251206
     196A      1.307738   197A      1.309676   198A      1.318453
     199A      1.326589   200A      1.329792   201A      1.331153
     202A      1.346992   203A      1.389396   204A      1.414283
     205A      1.448563   206A      1.451531   207A      1.455635
     208A      1.479308   209A      1.486137   210A      1.487364
     211A      1.488132   212A      1.499226   213A      1.502853
     214A      1.518263   215A      1.572687   216A      1.574216
     217A      1.587867   218A      1.635986   219A      1.640505
     220A      1.648296   221A      1.659416   222A      1.676556
     223A      1.698244   224A      1.716992   225A      1.746599
     226A      1.755105   227A      1.783797   228A      1.815728
     229A      1.893324   230A      1.916137   231A      1.964836
     232A      1.987675   233A      2.031203   234A      2.070402
     235A      2.091549   236A      2.101040   237A      2.102951
     238A      2.119621   239A      2.142977   240A      2.156851
     241A      2.159370   242A      2.163376   243A      2.190490
     244A      2.193319   245A      2.195036   246A      2.200381
     247A      2.202412   248A      2.227631   249A      2.234955
     250A      2.241382   251A      2.249834   252A      2.310185
     253A      2.312771   254A      2.319779   255A      2.355232
     256A      2.385069   257A      2.419387   258A      2.430958
     259A      2.435592   260A      2.438337   261A      2.439005
     262A      2.472856   263A      2.486907   264A      2.498493
     265A      2.519380   266A      2.522395   267A      2.525249
     268A      2.546175   269A      2.568545   270A      2.584795
     271A      2.592564   272A      2.606266   273A      2.626162
     274A      2.665225   275A      2.675409   276A      2.686399
     277A      2.714014   278A      2.717075   279A      2.718606
     280A      2.726831   281A      2.768124   282A      2.844014
     283A      2.865761   284A      2.904263   285A      2.939197
     286A      2.947431   287A      2.955946   288A      2.973556
     289A      3.001856   290A      3.017873   291A      3.032187
     292A      3.058510   293A      3.065411   294A      3.094137
     295A      3.114073   296A      3.220363   297A      3.245906
     298A      3.255980   299A      3.284884   300A      3.289864
     301A      3.322142   302A      3.337924   303A      3.340673
     304A      3.348839   305A      3.351563   306A      3.366141
     307A      3.412809   308A      3.413368   309A      3.470970
     310A      3.502167   311A      3.514923   312A      3.521578
     313A      3.590655   314A      3.604653   315A      3.605888
     316A      3.627790   317A      3.700702   318A      3.819146
     319A      3.830902   320A      3.941184   321A      3.969307
     322A      3.977248   323A      4.011616   324A      4.194972
     325A      4.242497   326A      4.253487   327A      4.442210
     328A      4.547042   329A      4.579495   330A      4.867858
     331A      4.976355   332A      5.058075   333A      5.261924
     334A      5.316755   335A      5.630416   336A      5.691537
     337A      5.827364   338A      5.952840   339A      6.284045
     340A      6.307099   341A      6.453973   342A      6.631410
     343A     18.125929   344A     18.208192   345A     19.017817
     346A     19.343236   347A     25.287277   348A     25.374998

    Final Occupation by Irrep:
              A
    DOCC [    21 ]

  @DF-RHF Final Energy:  -262.63994496115606

   => Energetics <=

    Nuclear Repulsion Energy =            212.5517311104853491
    One-Electron Energy =                -775.4594105206033419
    Two-Electron Energy =                 300.2677344489619600
    Total Energy =                       -262.6399449611560613

Computation Completed


Properties will be evaluated at   0.000000,   0.000000,   0.000000 [a0]

Properties computed using the SCF density matrix

  Nuclear Dipole Moment: [e a0]
     X:    55.0814      Y:    41.1737      Z:    17.9034

  Electronic Dipole Moment: [e a0]
     X:   -55.0814      Y:   -41.1737      Z:   -17.9034

  Dipole Moment: [e a0]
     X:    -0.0000      Y:    -0.0000      Z:    -0.0000     Total:     0.0000

  Dipole Moment: [D]
     X:    -0.0000      Y:    -0.0000      Z:    -0.0000     Total:     0.0000


*** tstop() called on atl1-1-01-013-21-r.pace.gatech.edu at Mon Nov 29 16:11:02 2021
Module time:
	user time   =      14.83 seconds =       0.25 minutes
	system time =       0.51 seconds =       0.01 minutes
	total time  =          9 seconds =       0.15 minutes
Total time:
	user time   =      39.62 seconds =       0.66 minutes
	system time =       1.52 seconds =       0.03 minutes
	total time  =         22 seconds =       0.37 minutes

  //>>>>>>>>>>>>>>>>>>>>>>>>>>>>>>>>>>>//
  //            Monomer B HF           //
  //<<<<<<<<<<<<<<<<<<<<<<<<<<<<<<<<<<<//


*** tstart() called on atl1-1-01-013-21-r.pace.gatech.edu
*** at Mon Nov 29 16:11:02 2021

   => Loading Basis Set <=

    Name: AUG-CC-PVDZ
    Role: ORBITAL
    Keyword: BASIS
    atoms 1-2, 11-12  entry N          line   218 file /storage/home/hhive1/csargent30/data/miniconda3/envs/psi4/share/psi4/basis/aug-cc-pvdz.gbs
    atoms 3-6, 13-16  entry H          line    40 file /storage/home/hhive1/csargent30/data/miniconda3/envs/psi4/share/psi4/basis/aug-cc-pvdz.gbs
    atoms 7-10, 17-20 entry C          line   182 file /storage/home/hhive1/csargent30/data/miniconda3/envs/psi4/share/psi4/basis/aug-cc-pvdz.gbs


         ---------------------------------------------------------
                                   SCF
               by Justin Turney, Rob Parrish, Andy Simmonett
                          and Daniel G. A. Smith
                              RHF Reference
                        2 Threads,   6675 MiB Core
         ---------------------------------------------------------

  ==> Geometry <==

    Molecular point group: c1
    Full point group: C1

    Geometry (in Bohr), charge = 0, multiplicity = 1:

       Center              X                  Y                   Z               Mass
    ------------   -----------------  -----------------  -----------------  -----------------
      Gh(N)          -1.330847580000     0.980326580000     0.426270370000    14.003074004430
      Gh(N)           3.953773330000     0.980326580000     0.426270370000    14.003074004430
      Gh(H)           3.567136740000     4.352185690000    -0.942309730000     1.007825032230
      Gh(H)          -0.944210980000     4.352185690000    -0.942309730000     1.007825032230
      Gh(H)          -0.944210980000    -2.391532530000     1.794850470000     1.007825032230
      Gh(H)           3.567136740000    -2.391532530000     1.794850470000     1.007825032230
      Gh(C)           2.622925760000     2.940979740000    -0.426270370000    12.000000000000
      Gh(C)           0.000000000000     2.940979740000    -0.426270370000    12.000000000000
      Gh(C)           0.000000000000    -0.980326580000     1.278811120000    12.000000000000
      Gh(C)           2.622925760000    -0.980326580000     1.278811120000    12.000000000000
         N          -18.953299590000   -10.074949200000   -13.682802820000    14.003074004430
         N          -13.668678680000   -10.074949200000   -13.682802820000    14.003074004430
         H          -14.055315270000    -6.703090090000   -15.051382920000     1.007825032230
         H          -18.566662990000    -6.703090090000   -15.051382920000     1.007825032230
         H          -18.566662990000   -13.446808310000   -12.314222720000     1.007825032230
         H          -14.055315270000   -13.446808310000   -12.314222720000     1.007825032230
         C          -14.999526250000    -8.114296040000   -14.535343570000    12.000000000000
         C          -17.622452010000    -8.114296040000   -14.535343570000    12.000000000000
         C          -17.622452010000   -12.035602360000   -12.830262080000    12.000000000000
         C          -14.999526250000   -12.035602360000   -12.830262080000    12.000000000000

  Running in c1 symmetry.

  Rotational constants: A =      0.06925  B =      0.00133  C =      0.00132 [cm^-1]
  Rotational constants: A =   2075.94963  B =     39.91684  C =     39.69342 [MHz]
  Nuclear repulsion =  212.551731110485264

  Charge       = 0
  Multiplicity = 1
  Electrons    = 42
  Nalpha       = 21
  Nbeta        = 21

  ==> Algorithm <==

  SCF Algorithm Type is DF.
  DIIS enabled.
  MOM disabled.
  Fractional occupation disabled.
  Guess Type is SAD.
  Energy threshold   = 1.00e-10
  Density threshold  = 1.00e-10
  Integral threshold = 1.00e-12

  ==> Primary Basis <==

  Basis Set: AUG-CC-PVDZ
    Blend: AUG-CC-PVDZ
    Number of shells: 148
    Number of basis functions: 348
    Number of Cartesian functions: 372
    Spherical Harmonics?: true
    Max angular momentum: 2

   => Loading Basis Set <=

    Name: (AUG-CC-PVDZ AUX)
    Role: JKFIT
    Keyword: DF_BASIS_SCF
    atoms 1-2, 11-12  entry N          line   212 file /storage/home/hhive1/csargent30/data/miniconda3/envs/psi4/share/psi4/basis/aug-cc-pvdz-jkfit.gbs
    atoms 3-6, 13-16  entry H          line    70 file /storage/home/hhive1/csargent30/data/miniconda3/envs/psi4/share/psi4/basis/aug-cc-pvdz-jkfit.gbs
    atoms 7-10, 17-20 entry C          line   154 file /storage/home/hhive1/csargent30/data/miniconda3/envs/psi4/share/psi4/basis/aug-cc-pvdz-jkfit.gbs

  ==> Integral Setup <==

  ==> DiskDFJK: Density-Fitted J/K Matrices <==

    J tasked:                  Yes
    K tasked:                  Yes
    wK tasked:                  No
    OpenMP threads:              2
    Integrals threads:           2
    Memory [MiB]:             5006
    Algorithm:                Core
    Integral Cache:           LOAD
    Schwarz Cutoff:          1E-12
    Fitting Condition:       1E-10

   => Auxiliary Basis Set <=

  Basis Set: (AUG-CC-PVDZ AUX)
    Blend: AUG-CC-PVDZ-JKFIT
    Number of shells: 432
    Number of basis functions: 1288
    Number of Cartesian functions: 1492
    Spherical Harmonics?: true
    Max angular momentum: 3

  Minimum eigenvalue in the overlap matrix is 9.4567961989E-06.
  Reciprocal condition number of the overlap matrix is 7.3759435701E-07.
    Using symmetric orthogonalization.

  ==> Pre-Iterations <==

  SCF Guess: Superposition of Atomic Densities via on-the-fly atomic UHF (no occupation information).

   -------------------------
    Irrep   Nso     Nmo
   -------------------------
     A        348     348
   -------------------------
    Total     348     348
   -------------------------

  ==> Iterations <==

                           Total Energy        Delta E     RMS |[F,P]|

   @DF-RHF iter SAD:  -262.32523126024017   -2.62325e+02   0.00000e+00
   @DF-RHF iter   1:  -262.53940807058768   -2.14177e-01   1.11985e-03 DIIS
   @DF-RHF iter   2:  -262.62878847990680   -8.93804e-02   4.10664e-04 DIIS
   @DF-RHF iter   3:  -262.63862302627604   -9.83455e-03   1.28248e-04 DIIS
   @DF-RHF iter   4:  -262.63984777923184   -1.22475e-03   3.77599e-05 DIIS
   @DF-RHF iter   5:  -262.63993737969713   -8.96005e-05   7.55558e-06 DIIS
   @DF-RHF iter   6:  -262.63994392995886   -6.55026e-06   2.45264e-06 DIIS
   @DF-RHF iter   7:  -262.63994488233254   -9.52374e-07   6.40130e-07 DIIS
   @DF-RHF iter   8:  -262.63994495622063   -7.38881e-08   9.91693e-08 DIIS
   @DF-RHF iter   9:  -262.63994495820657   -1.98594e-09   1.88228e-08 DIIS
   @DF-RHF iter  10:  -262.63994495827671   -7.01448e-11   3.19152e-09 DIIS
   @DF-RHF iter  11:  -262.63994495827933   -2.61480e-12   5.22417e-10 DIIS
   @DF-RHF iter  12:  -262.63994495827933    0.00000e+00   9.64696e-11 DIIS
  Energy and wave function converged.


  ==> Post-Iterations <==

    Orbital Energies [Eh]
    ---------------------

    Doubly Occupied:

       1A    -15.598072     2A    -15.598053     3A    -11.274239
       4A    -11.274194     5A    -11.272975     6A    -11.272969
       7A     -1.313347     8A     -1.224176     9A     -1.076803
      10A     -0.922662    11A     -0.919282    12A     -0.760637
      13A     -0.738402    14A     -0.706214    15A     -0.647687
      16A     -0.580711    17A     -0.574369    18A     -0.497113
      19A     -0.434288    20A     -0.415855    21A     -0.359924

    Virtual:

      22A      0.022547    23A      0.034346    24A      0.039572
      25A      0.040526    26A      0.041336    27A      0.048641
      28A      0.058033    29A      0.059556    30A      0.067114
      31A      0.079894    32A      0.085193    33A      0.099414
      34A      0.100847    35A      0.104076    36A      0.108572
      37A      0.108934    38A      0.114227    39A      0.115170
      40A      0.122687    41A      0.123759    42A      0.125304
      43A      0.125773    44A      0.128673    45A      0.131161
      46A      0.132889    47A      0.134281    48A      0.152095
      49A      0.152473    50A      0.158282    51A      0.159485
      52A      0.161370    53A      0.161533    54A      0.164735
      55A      0.175138    56A      0.177177    57A      0.186939
      58A      0.198148    59A      0.203903    60A      0.204136
      61A      0.206850    62A      0.212542    63A      0.222593
      64A      0.233814    65A      0.239618    66A      0.250519
      67A      0.255484    68A      0.267758    69A      0.270938
      70A      0.278102    71A      0.287854    72A      0.293243
      73A      0.295786    74A      0.302493    75A      0.314828
      76A      0.320302    77A      0.320993    78A      0.328342
      79A      0.331576    80A      0.344293    81A      0.355448
      82A      0.357912    83A      0.364662    84A      0.379967
      85A      0.383494    86A      0.385892    87A      0.398974
      88A      0.401485    89A      0.409912    90A      0.419412
      91A      0.425065    92A      0.425633    93A      0.433929
      94A      0.437244    95A      0.442125    96A      0.452174
      97A      0.460834    98A      0.461312    99A      0.471478
     100A      0.476280   101A      0.479006   102A      0.492165
     103A      0.504863   104A      0.507995   105A      0.514915
     106A      0.523884   107A      0.524549   108A      0.528851
     109A      0.535902   110A      0.554577   111A      0.558015
     112A      0.561685   113A      0.564669   114A      0.570535
     115A      0.582124   116A      0.587553   117A      0.591530
     118A      0.593802   119A      0.596161   120A      0.608930
     121A      0.615360   122A      0.620399   123A      0.636543
     124A      0.643530   125A      0.644331   126A      0.649522
     127A      0.651664   128A      0.679574   129A      0.685137
     130A      0.685493   131A      0.687759   132A      0.689949
     133A      0.690358   134A      0.694831   135A      0.703849
     136A      0.720055   137A      0.728574   138A      0.746443
     139A      0.747160   140A      0.754817   141A      0.767027
     142A      0.775862   143A      0.781423   144A      0.793803
     145A      0.799807   146A      0.802725   147A      0.811423
     148A      0.812149   149A      0.819020   150A      0.824928
     151A      0.831074   152A      0.847540   153A      0.848248
     154A      0.849371   155A      0.868781   156A      0.880544
     157A      0.886413   158A      0.888323   159A      0.894683
     160A      0.906299   161A      0.929265   162A      0.929294
     163A      0.939537   164A      0.947885   165A      0.949318
     166A      0.970957   167A      0.977114   168A      0.986810
     169A      0.996688   170A      0.998927   171A      1.013015
     172A      1.032587   173A      1.033386   174A      1.047126
     175A      1.051201   176A      1.076442   177A      1.089381
     178A      1.090456   179A      1.100446   180A      1.122198
     181A      1.124045   182A      1.130862   183A      1.134393
     184A      1.140485   185A      1.158769   186A      1.168774
     187A      1.170850   188A      1.173568   189A      1.192497
     190A      1.193421   191A      1.200662   192A      1.222485
     193A      1.235420   194A      1.238808   195A      1.251206
     196A      1.307738   197A      1.309676   198A      1.318453
     199A      1.326589   200A      1.329792   201A      1.331153
     202A      1.346992   203A      1.389396   204A      1.414283
     205A      1.448563   206A      1.451531   207A      1.455635
     208A      1.479308   209A      1.486137   210A      1.487364
     211A      1.488132   212A      1.499226   213A      1.502853
     214A      1.518263   215A      1.572687   216A      1.574216
     217A      1.587867   218A      1.635986   219A      1.640505
     220A      1.648296   221A      1.659416   222A      1.676556
     223A      1.698244   224A      1.716992   225A      1.746599
     226A      1.755105   227A      1.783797   228A      1.815728
     229A      1.893324   230A      1.916137   231A      1.964836
     232A      1.987675   233A      2.031203   234A      2.070402
     235A      2.091549   236A      2.101040   237A      2.102951
     238A      2.119621   239A      2.142977   240A      2.156851
     241A      2.159370   242A      2.163376   243A      2.190490
     244A      2.193319   245A      2.195036   246A      2.200381
     247A      2.202412   248A      2.227631   249A      2.234955
     250A      2.241382   251A      2.249834   252A      2.310185
     253A      2.312771   254A      2.319779   255A      2.355232
     256A      2.385069   257A      2.419387   258A      2.430958
     259A      2.435592   260A      2.438337   261A      2.439005
     262A      2.472856   263A      2.486907   264A      2.498493
     265A      2.519380   266A      2.522395   267A      2.525249
     268A      2.546175   269A      2.568545   270A      2.584795
     271A      2.592564   272A      2.606266   273A      2.626162
     274A      2.665225   275A      2.675409   276A      2.686399
     277A      2.714014   278A      2.717075   279A      2.718606
     280A      2.726831   281A      2.768124   282A      2.844014
     283A      2.865761   284A      2.904263   285A      2.939197
     286A      2.947431   287A      2.955946   288A      2.973556
     289A      3.001856   290A      3.017873   291A      3.032187
     292A      3.058510   293A      3.065411   294A      3.094137
     295A      3.114073   296A      3.220363   297A      3.245906
     298A      3.255980   299A      3.284884   300A      3.289864
     301A      3.322142   302A      3.337924   303A      3.340673
     304A      3.348839   305A      3.351563   306A      3.366141
     307A      3.412809   308A      3.413368   309A      3.470970
     310A      3.502167   311A      3.514923   312A      3.521578
     313A      3.590655   314A      3.604653   315A      3.605888
     316A      3.627789   317A      3.700702   318A      3.819146
     319A      3.830902   320A      3.941184   321A      3.969307
     322A      3.977248   323A      4.011616   324A      4.194972
     325A      4.242497   326A      4.253487   327A      4.442210
     328A      4.547042   329A      4.579495   330A      4.867858
     331A      4.976355   332A      5.058075   333A      5.261924
     334A      5.316755   335A      5.630416   336A      5.691537
     337A      5.827364   338A      5.952840   339A      6.284045
     340A      6.307099   341A      6.453973   342A      6.631410
     343A     18.125929   344A     18.208192   345A     19.017817
     346A     19.343236   347A     25.287277   348A     25.374998

    Final Occupation by Irrep:
              A
    DOCC [    21 ]

  @DF-RHF Final Energy:  -262.63994495827933

   => Energetics <=

    Nuclear Repulsion Energy =            212.5517311104852638
    One-Electron Energy =                -775.4594105203962044
    Two-Electron Energy =                 300.2677344516316680
    Total Energy =                       -262.6399449582793295

Computation Completed


Properties will be evaluated at   0.000000,   0.000000,   0.000000 [a0]

Properties computed using the SCF density matrix

  Nuclear Dipole Moment: [e a0]
     X:  -685.0615      Y:  -423.1479      Z:  -574.6777

  Electronic Dipole Moment: [e a0]
     X:   685.0615      Y:   423.1479      Z:   574.6777

  Dipole Moment: [e a0]
     X:     0.0000      Y:     0.0000      Z:     0.0000     Total:     0.0000

  Dipole Moment: [D]
     X:     0.0000      Y:     0.0000      Z:     0.0000     Total:     0.0000


*** tstop() called on atl1-1-01-013-21-r.pace.gatech.edu at Mon Nov 29 16:11:10 2021
Module time:
	user time   =      14.96 seconds =       0.25 minutes
	system time =       0.48 seconds =       0.01 minutes
	total time  =          8 seconds =       0.13 minutes
Total time:
	user time   =      54.59 seconds =       0.91 minutes
	system time =       2.00 seconds =       0.03 minutes
	total time  =         30 seconds =       0.50 minutes
  Constructing Basis Sets for SAPT...

   => Loading Basis Set <=

    Name: (AUG-CC-PVDZ AUX)
    Role: RIFIT
    Keyword: DF_BASIS_SAPT
    atoms 1-2, 11-12  entry N          line   158 file /storage/home/hhive1/csargent30/data/miniconda3/envs/psi4/share/psi4/basis/aug-cc-pvdz-ri.gbs
    atoms 3-6, 13-16  entry H          line    30 file /storage/home/hhive1/csargent30/data/miniconda3/envs/psi4/share/psi4/basis/aug-cc-pvdz-ri.gbs
    atoms 7-10, 17-20 entry C          line   112 file /storage/home/hhive1/csargent30/data/miniconda3/envs/psi4/share/psi4/basis/aug-cc-pvdz-ri.gbs


  //>>>>>>>>>>>>>>>>>>>>>>>>>>>>>>>>>>>//
  //               SAPT0               //
  //<<<<<<<<<<<<<<<<<<<<<<<<<<<<<<<<<<<//


*** tstart() called on atl1-1-01-013-21-r.pace.gatech.edu
*** at Mon Nov 29 16:11:10 2021

        SAPT0
    Ed Hohenstein
     6 June 2009

      Orbital Information
  --------------------------
    NSO        =       348
    NMO        =       348
    NRI        =      1048
    NOCC A     =        21
    NOCC B     =        21
    FOCC A     =         6
    FOCC B     =         6
    NVIR A     =       327
    NVIR B     =       327

    Elst10,r            =     0.000007402518 [Eh]
    Exch10              =     0.000000000130 [Eh]
    Exch10 (S^2)        =     0.000000000130 [Eh]

    Iter     Energy [mEh]          dE [mEh]         Residual      Time [s]
       1      -0.00003354       0.000033542       0.059777427             0
       2      -0.00003007      -0.000003476       0.013555907             1
       3      -0.00003204       0.000001970       0.006827929             1
       4      -0.00003289       0.000000856       0.001792899             2
       5      -0.00003278      -0.000000108       0.001279170             2
       6      -0.00003272      -0.000000062       0.000420036             2
       7      -0.00003274       0.000000017       0.000128312             3
       8      -0.00003274       0.000000004       0.000040479             3
       9      -0.00003274      -0.000000000       0.000012124             3
      10      -0.00003274      -0.000000001       0.000003103             4
      11      -0.00003274       0.000000000       0.000001297             4
      12      -0.00003274       0.000000000       0.000000469             4

    CHF Iterations converged


    Iter     Energy [mEh]          dE [mEh]         Residual      Time [s]
       1      -0.00003354       0.000033542       0.059777427             1
       2      -0.00003007      -0.000003476       0.013555907             1
       3      -0.00003204       0.000001970       0.006827929             2
       4      -0.00003289       0.000000856       0.001792899             2
       5      -0.00003278      -0.000000108       0.001279170             2
       6      -0.00003272      -0.000000062       0.000420036             3
       7      -0.00003274       0.000000017       0.000128312             3
       8      -0.00003274       0.000000004       0.000040479             3
       9      -0.00003274      -0.000000000       0.000012124             4
      10      -0.00003274      -0.000000001       0.000003103             4
      11      -0.00003274       0.000000000       0.000001297             4
      12      -0.00003274       0.000000000       0.000000469             5

    CHF Iterations converged

    Ind20,r (A<-B)      =    -0.000000032742 [Eh]
    Ind20,r (B<-A)      =    -0.000000032742 [Eh]
    Ind20,r             =    -0.000000065484 [Eh]
    Exch-Ind20,r (A<-B) =     0.000000000123 [Eh]
    Exch-Ind20,r (B<-A) =     0.000000000123 [Eh]
    Exch-Ind20,r        =     0.000000000246 [Eh]
    Disp20              =    -0.000006552311 [Eh]
    Disp20 (SS)         =    -0.000003276156 [Eh]
    Disp20 (OS)         =    -0.000003276156 [Eh]
    Exch-Disp20         =     0.000000000014 [Eh]
    Exch-Disp20 (SS)    =     0.000000000011 [Eh]
    Exch-Disp20 (OS)    =     0.000000000003 [Eh]

    SAPT Results
  --------------------------------------------------------------------------------------------------------
    Electrostatics                  0.00740252 [mEh]       0.00464515 [kcal/mol]       0.01943531 [kJ/mol]
      Elst10,r                      0.00740252 [mEh]       0.00464515 [kcal/mol]       0.01943531 [kJ/mol]

    Exchange                        0.00000013 [mEh]       0.00000008 [kcal/mol]       0.00000034 [kJ/mol]
      Exch10                        0.00000013 [mEh]       0.00000008 [kcal/mol]       0.00000034 [kJ/mol]
      Exch10(S^2)                   0.00000013 [mEh]       0.00000008 [kcal/mol]       0.00000034 [kJ/mol]

    Induction                      -0.00003362 [mEh]      -0.00002110 [kcal/mol]      -0.00008827 [kJ/mol]
      Ind20,r                      -0.00006548 [mEh]      -0.00004109 [kcal/mol]      -0.00017193 [kJ/mol]
      Exch-Ind20,r                  0.00000025 [mEh]       0.00000015 [kcal/mol]       0.00000065 [kJ/mol]
      delta HF,r (2)                0.00003162 [mEh]       0.00001984 [kcal/mol]       0.00008301 [kJ/mol]

    Dispersion                     -0.00655230 [mEh]      -0.00411163 [kcal/mol]      -0.01720305 [kJ/mol]
      Disp20                       -0.00655231 [mEh]      -0.00411164 [kcal/mol]      -0.01720309 [kJ/mol]
      Exch-Disp20                   0.00000001 [mEh]       0.00000001 [kcal/mol]       0.00000004 [kJ/mol]
      Disp20 (SS)                  -0.00327616 [mEh]      -0.00205582 [kcal/mol]      -0.00860155 [kJ/mol]
      Disp20 (OS)                  -0.00327616 [mEh]      -0.00205582 [kcal/mol]      -0.00860155 [kJ/mol]
      Exch-Disp20 (SS)              0.00000001 [mEh]       0.00000001 [kcal/mol]       0.00000003 [kJ/mol]
      Exch-Disp20 (OS)              0.00000000 [mEh]       0.00000000 [kcal/mol]       0.00000001 [kJ/mol]

  Total HF                          0.00736903 [mEh]       0.00462414 [kcal/mol]       0.01934738 [kJ/mol]
  Total SAPT0                       0.00081673 [mEh]       0.00051251 [kcal/mol]       0.00214433 [kJ/mol]

  Special recipe for scaled SAPT0 (see Manual):
    Electrostatics sSAPT0           0.00740252 [mEh]       0.00464515 [kcal/mol]       0.01943531 [kJ/mol]
    Exchange sSAPT0                 0.00000013 [mEh]       0.00000008 [kcal/mol]       0.00000034 [kJ/mol]
    Induction sSAPT0               -0.00003362 [mEh]      -0.00002110 [kcal/mol]      -0.00008827 [kJ/mol]
    Dispersion sSAPT0              -0.00655230 [mEh]      -0.00411163 [kcal/mol]      -0.01720305 [kJ/mol]
  Total sSAPT0                      0.00081673 [mEh]       0.00051251 [kcal/mol]       0.00214433 [kJ/mol]
  --------------------------------------------------------------------------------------------------------

*** tstop() called on atl1-1-01-013-21-r.pace.gatech.edu at Mon Nov 29 16:11:36 2021
Module time:
	user time   =      38.71 seconds =       0.65 minutes
	system time =       9.32 seconds =       0.16 minutes
	total time  =         26 seconds =       0.43 minutes
Total time:
	user time   =      93.54 seconds =       1.56 minutes
	system time =      11.33 seconds =       0.19 minutes
	total time  =         56 seconds =       0.93 minutes


Warning! sapt0 does not have an associated derived wavefunction.The returned wavefunction is the dimer SCF wavefunction.


    Psi4 stopped on: Monday, 29 November 2021 04:11PM
    Psi4 wall time for execution: 0:00:56.61

*** Psi4 exiting successfully. Buy a developer a beer!
