
    -----------------------------------------------------------------------
          Psi4: An Open-Source Ab Initio Electronic Structure Package
                               Psi4 1.4.1 release

                         Git: Rev {HEAD} cd00f19 


    D. G. A. Smith, L. A. Burns, A. C. Simmonett, R. M. Parrish,
    M. C. Schieber, R. Galvelis, P. Kraus, H. Kruse, R. Di Remigio,
    A. Alenaizan, A. M. James, S. Lehtola, J. P. Misiewicz, M. Scheurer,
    R. A. Shaw, J. B. Schriber, Y. Xie, Z. L. Glick, D. A. Sirianni,
    J. S. O'Brien, J. M. Waldrop, A. Kumar, E. G. Hohenstein,
    B. P. Pritchard, B. R. Brooks, H. F. Schaefer III, A. Yu. Sokolov,
    K. Patkowski, A. E. DePrince III, U. Bozkaya, R. A. King,
    F. A. Evangelista, J. M. Turney, T. D. Crawford, C. D. Sherrill,
    J. Chem. Phys. 152(18) 184108 (2020). https://doi.org/10.1063/5.0006002

                            Additional Code Authors
    E. T. Seidl, C. L. Janssen, E. F. Valeev, M. L. Leininger,
    J. F. Gonthier, R. M. Richard, H. R. McAlexander, M. Saitow, X. Wang,
    P. Verma, and M. H. Lechner

             Previous Authors, Complete List of Code Contributors,
                       and Citations for Specific Modules
    https://github.com/psi4/psi4/blob/master/codemeta.json
    https://github.com/psi4/psi4/graphs/contributors
    http://psicode.org/psi4manual/master/introduction.html#citing-psifour

    -----------------------------------------------------------------------


    Psi4 started on: Monday, 29 November 2021 04:10PM

    Process ID: 111494
    Host:       atl1-1-01-013-3-r.pace.gatech.edu
    PSIDATADIR: /storage/home/hhive1/csargent30/data/miniconda3/envs/psi4/share/psi4
    Memory:     500.0 MiB
    Threads:    2
    
  ==> Input File <==

--------------------------------------------------------------------------
# PSI4 file produced by CrystaLattE

# Generated from:               pyrazine.xyz
# Psithon input for N-mer:      2mer-0+1
# Number of atoms per monomer:  [10, 10]
# Number of replicas:           8
# COM priority:                 7.547355986150e-04
# Minimum COM separations:      5.812 
# Separation priority:          8.185540409071e-03
# Minimum monomer separations:  2.626 
# Cutoff priority:              1.649667717490e-03
# Nuclear repulsion energy:     588.8820718075217

memory 7 GB

molecule Dimer_0_1 {
  N           -1.33084758       0.98032658       0.42627037 
  N            3.95377333       0.98032658       0.42627037 
  H            3.56713674       4.35218569      -0.94230973 
  H           -0.94421098       4.35218569      -0.94230973 
  H           -0.94421098      -2.39153253       1.79485047 
  H            3.56713674      -2.39153253       1.79485047 
  C            2.62292576       2.94097974      -0.42627037 
  C            0.00000000       2.94097974      -0.42627037 
  C            0.00000000      -0.98032658       1.27881112 
  C            2.62292576      -0.98032658       1.27881112 
--
  N          -10.14207358      -4.54731131      -3.10099793 
  N           -4.85745267      -4.54731131      -3.10099793 
  H           -9.75543698      -7.91917042      -4.46957803 
  H           -9.75543698      -1.17545220      -1.73241783 
  H           -5.24408927      -7.91917042      -4.46957803 
  H           -5.24408927      -1.17545220      -1.73241783 
  C           -8.81122601      -6.50796447      -3.95353867 
  C           -8.81122601      -2.58665815      -2.24845718 
  C           -6.18830025      -6.50796447      -3.95353867 
  C           -6.18830025      -2.58665815      -2.24845718 
units = au
no_com
no_reorient
}

set {
  e_convergence 10
  d_convergence 10
  scf_type df
  mp2_type df
  cc_type df
  freeze_core true
}

energy('sapt0/aug-cc-pvdz')

--------------------------------------------------------------------------

  Memory set to   6.519 GiB by Python driver.

Scratch directory: /tmp/

Scratch directory: /tmp/

  //>>>>>>>>>>>>>>>>>>>>>>>>>>>>>>>>>>>//
  //              Dimer HF             //
  //<<<<<<<<<<<<<<<<<<<<<<<<<<<<<<<<<<<//


*** tstart() called on atl1-1-01-013-3-r.pace.gatech.edu
*** at Mon Nov 29 16:10:41 2021

   => Loading Basis Set <=

    Name: AUG-CC-PVDZ
    Role: ORBITAL
    Keyword: BASIS
    atoms 1-2, 11-12  entry N          line   218 file /storage/home/hhive1/csargent30/data/miniconda3/envs/psi4/share/psi4/basis/aug-cc-pvdz.gbs 
    atoms 3-6, 13-16  entry H          line    40 file /storage/home/hhive1/csargent30/data/miniconda3/envs/psi4/share/psi4/basis/aug-cc-pvdz.gbs 
    atoms 7-10, 17-20 entry C          line   182 file /storage/home/hhive1/csargent30/data/miniconda3/envs/psi4/share/psi4/basis/aug-cc-pvdz.gbs 


         ---------------------------------------------------------
                                   SCF
               by Justin Turney, Rob Parrish, Andy Simmonett
                          and Daniel G. A. Smith
                              RHF Reference
                        2 Threads,   6675 MiB Core
         ---------------------------------------------------------

  ==> Geometry <==

    Molecular point group: c1
    Full point group: C1

    Geometry (in Bohr), charge = 0, multiplicity = 1:

       Center              X                  Y                   Z               Mass       
    ------------   -----------------  -----------------  -----------------  -----------------
         N           -1.330847580000     0.980326580000     0.426270370000    14.003074004430
         N            3.953773330000     0.980326580000     0.426270370000    14.003074004430
         H            3.567136740000     4.352185690000    -0.942309730000     1.007825032230
         H           -0.944210980000     4.352185690000    -0.942309730000     1.007825032230
         H           -0.944210980000    -2.391532530000     1.794850470000     1.007825032230
         H            3.567136740000    -2.391532530000     1.794850470000     1.007825032230
         C            2.622925760000     2.940979740000    -0.426270370000    12.000000000000
         C            0.000000000000     2.940979740000    -0.426270370000    12.000000000000
         C            0.000000000000    -0.980326580000     1.278811120000    12.000000000000
         C            2.622925760000    -0.980326580000     1.278811120000    12.000000000000
         N          -10.142073580000    -4.547311310000    -3.100997930000    14.003074004430
         N           -4.857452670000    -4.547311310000    -3.100997930000    14.003074004430
         H           -9.755436980000    -7.919170420000    -4.469578030000     1.007825032230
         H           -9.755436980000    -1.175452200000    -1.732417830000     1.007825032230
         H           -5.244089270000    -7.919170420000    -4.469578030000     1.007825032230
         H           -5.244089270000    -1.175452200000    -1.732417830000     1.007825032230
         C           -8.811226010000    -6.507964470000    -3.953538670000    12.000000000000
         C           -8.811226010000    -2.586658150000    -2.248457180000    12.000000000000
         C           -6.188300250000    -6.507964470000    -3.953538670000    12.000000000000
         C           -6.188300250000    -2.586658150000    -2.248457180000    12.000000000000

  Running in c1 symmetry.

  Rotational constants: A =      0.09484  B =      0.00772  C =      0.00737 [cm^-1]
  Rotational constants: A =   2843.11121  B =    231.42650  C =    221.06914 [MHz]
  Nuclear repulsion =  588.882071825146681

  Charge       = 0
  Multiplicity = 1
  Electrons    = 84
  Nalpha       = 42
  Nbeta        = 42

  ==> Algorithm <==

  SCF Algorithm Type is DF.
  DIIS enabled.
  MOM disabled.
  Fractional occupation disabled.
  Guess Type is SAD.
  Energy threshold   = 1.00e-10
  Density threshold  = 1.00e-10
  Integral threshold = 1.00e-12

  ==> Primary Basis <==

  Basis Set: AUG-CC-PVDZ
    Blend: AUG-CC-PVDZ
    Number of shells: 148
    Number of basis functions: 348
    Number of Cartesian functions: 372
    Spherical Harmonics?: true
    Max angular momentum: 2

   => Loading Basis Set <=

    Name: (AUG-CC-PVDZ AUX)
    Role: JKFIT
    Keyword: DF_BASIS_SCF
    atoms 1-2, 11-12  entry N          line   212 file /storage/home/hhive1/csargent30/data/miniconda3/envs/psi4/share/psi4/basis/aug-cc-pvdz-jkfit.gbs 
    atoms 3-6, 13-16  entry H          line    70 file /storage/home/hhive1/csargent30/data/miniconda3/envs/psi4/share/psi4/basis/aug-cc-pvdz-jkfit.gbs 
    atoms 7-10, 17-20 entry C          line   154 file /storage/home/hhive1/csargent30/data/miniconda3/envs/psi4/share/psi4/basis/aug-cc-pvdz-jkfit.gbs 

  ==> Integral Setup <==

  ==> DiskDFJK: Density-Fitted J/K Matrices <==

    J tasked:                  Yes
    K tasked:                  Yes
    wK tasked:                  No
    OpenMP threads:              2
    Integrals threads:           2
    Memory [MiB]:             5006
    Algorithm:                Core
    Integral Cache:           SAVE
    Schwarz Cutoff:          1E-12
    Fitting Condition:       1E-10

   => Auxiliary Basis Set <=

  Basis Set: (AUG-CC-PVDZ AUX)
    Blend: AUG-CC-PVDZ-JKFIT
    Number of shells: 432
    Number of basis functions: 1288
    Number of Cartesian functions: 1492
    Spherical Harmonics?: true
    Max angular momentum: 3

  Minimum eigenvalue in the overlap matrix is 6.0611598360E-06.
  Reciprocal condition number of the overlap matrix is 4.3719010853E-07.
    Using symmetric orthogonalization.

  ==> Pre-Iterations <==

  SCF Guess: Superposition of Atomic Densities via on-the-fly atomic UHF (no occupation information).

   -------------------------
    Irrep   Nso     Nmo    
   -------------------------
     A        348     348 
   -------------------------
    Total     348     348
   -------------------------

  ==> Iterations <==

                           Total Energy        Delta E     RMS |[F,P]|

   @DF-RHF iter SAD:  -524.70465600954810   -5.24705e+02   0.00000e+00 
   @DF-RHF iter   1:  -525.08233870806112   -3.77683e-01   1.57583e-03 DIIS
   @DF-RHF iter   2:  -525.26018804226896   -1.77849e-01   5.68839e-04 DIIS
   @DF-RHF iter   3:  -525.27922482212648   -1.90368e-02   1.81191e-04 DIIS
   @DF-RHF iter   4:  -525.28165377558639   -2.42895e-03   5.27674e-05 DIIS
   @DF-RHF iter   5:  -525.28182870541377   -1.74930e-04   1.07372e-05 DIIS
   @DF-RHF iter   6:  -525.28184174207126   -1.30367e-05   3.52492e-06 DIIS
   @DF-RHF iter   7:  -525.28184366915502   -1.92708e-06   1.24114e-06 DIIS
   @DF-RHF iter   8:  -525.28184385402290   -1.84868e-07   6.06384e-07 DIIS
   @DF-RHF iter   9:  -525.28184390734270   -5.33198e-08   1.36547e-07 DIIS
   @DF-RHF iter  10:  -525.28184391231366   -4.97096e-09   6.66663e-08 DIIS
   @DF-RHF iter  11:  -525.28184391337845   -1.06479e-09   3.81302e-08 DIIS
   @DF-RHF iter  12:  -525.28184391381592   -4.37467e-10   1.31698e-08 DIIS
   @DF-RHF iter  13:  -525.28184391387629   -6.03677e-11   3.62121e-09 DIIS
   @DF-RHF iter  14:  -525.28184391387936   -3.06954e-12   1.57280e-09 DIIS
   @DF-RHF iter  15:  -525.28184391387924    1.13687e-13   5.83155e-10 DIIS
   @DF-RHF iter  16:  -525.28184391387867    5.68434e-13   2.18253e-10 DIIS
   @DF-RHF iter  17:  -525.28184391387856    1.13687e-13   1.00520e-10 DIIS
   @DF-RHF iter  18:  -525.28184391387845    1.13687e-13   5.23546e-11 DIIS
  Energy and wave function converged.


  ==> Post-Iterations <==

    Orbital Energies [Eh]
    ---------------------

    Doubly Occupied:                                                      

       1A    -15.599650     2A    -15.598804     3A    -15.594197  
       4A    -15.593579     5A    -11.275506     6A    -11.274597  
       7A    -11.273775     8A    -11.273230     9A    -11.270398  
      10A    -11.268987    11A    -11.268460    12A    -11.265632  
      13A     -1.314409    14A     -1.308984    15A     -1.225496  
      16A     -1.219914    17A     -1.077436    18A     -1.071894  
      19A     -0.923689    20A     -0.920093    21A     -0.917800  
      22A     -0.914171    23A     -0.762638    24A     -0.755409  
      25A     -0.738907    26A     -0.732782    27A     -0.707229  
      28A     -0.701600    29A     -0.648293    30A     -0.642587  
      31A     -0.581442    32A     -0.577023    33A     -0.574080  
      34A     -0.570214    35A     -0.499275    36A     -0.493416  
      37A     -0.435841    38A     -0.430537    39A     -0.418620  
      40A     -0.410677    41A     -0.360088    42A     -0.355139  

    Virtual:                                                              

      43A      0.031783    44A      0.037270    45A      0.040509  
      46A      0.045662    47A      0.052872    48A      0.058179  
      49A      0.061028    50A      0.069095    51A      0.073422  
      52A      0.083330    53A      0.096636    54A      0.100251  
      55A      0.104383    56A      0.106186    57A      0.109302  
      58A      0.111578    59A      0.116828    60A      0.119385  
      61A      0.123063    62A      0.131935    63A      0.136957  
      64A      0.143557    65A      0.152046    66A      0.156404  
      67A      0.158987    68A      0.160068    69A      0.162403  
      70A      0.164895    71A      0.166808    72A      0.170990  
      73A      0.175755    74A      0.182086    75A      0.184678  
      76A      0.190890    77A      0.194325    78A      0.206483  
      79A      0.217352    80A      0.222011    81A      0.234710  
      82A      0.238299    83A      0.248306    84A      0.258712  
      85A      0.268342    86A      0.274817    87A      0.279981  
      88A      0.287708    89A      0.290143    90A      0.294945  
      91A      0.299089    92A      0.305913    93A      0.312243  
      94A      0.316491    95A      0.319601    96A      0.323440  
      97A      0.326192    98A      0.328445    99A      0.330629  
     100A      0.350073   101A      0.354809   102A      0.361287  
     103A      0.375945   104A      0.388786   105A      0.391253  
     106A      0.395199   107A      0.397779   108A      0.404571  
     109A      0.415383   110A      0.418495   111A      0.422971  
     112A      0.427176   113A      0.430988   114A      0.441166  
     115A      0.445767   116A      0.452978   117A      0.454638  
     118A      0.461257   119A      0.467982   120A      0.477732  
     121A      0.487769   122A      0.492563   123A      0.504284  
     124A      0.508979   125A      0.525496   126A      0.525797  
     127A      0.532151   128A      0.538509   129A      0.542395  
     130A      0.549899   131A      0.550208   132A      0.558381  
     133A      0.568091   134A      0.576229   135A      0.586877  
     136A      0.597593   137A      0.602763   138A      0.606541  
     139A      0.607200   140A      0.613118   141A      0.619701  
     142A      0.628844   143A      0.638047   144A      0.647509  
     145A      0.653381   146A      0.665558   147A      0.669441  
     148A      0.683737   149A      0.691726   150A      0.692644  
     151A      0.695427   152A      0.699366   153A      0.703824  
     154A      0.706742   155A      0.708368   156A      0.716273  
     157A      0.725092   158A      0.733789   159A      0.747422  
     160A      0.749236   161A      0.760188   162A      0.773748  
     163A      0.780958   164A      0.784585   165A      0.791841  
     166A      0.793367   167A      0.795851   168A      0.808668  
     169A      0.812297   170A      0.822586   171A      0.831580  
     172A      0.846355   173A      0.855722   174A      0.867290  
     175A      0.873342   176A      0.887133   177A      0.887677  
     178A      0.896255   179A      0.905188   180A      0.910269  
     181A      0.913911   182A      0.917851   183A      0.926575  
     184A      0.942296   185A      0.947474   186A      0.953048  
     187A      0.960472   188A      0.970077   189A      0.982123  
     190A      0.998295   191A      1.010807   192A      1.018365  
     193A      1.021360   194A      1.035003   195A      1.044156  
     196A      1.048619   197A      1.050761   198A      1.074127  
     199A      1.093540   200A      1.105758   201A      1.109740  
     202A      1.119436   203A      1.123447   204A      1.128580  
     205A      1.134513   206A      1.141353   207A      1.142512  
     208A      1.162340   209A      1.177518   210A      1.186478  
     211A      1.191985   212A      1.197104   213A      1.203938  
     214A      1.242593   215A      1.248049   216A      1.278360  
     217A      1.294582   218A      1.311175   219A      1.325349  
     220A      1.344172   221A      1.355123   222A      1.380061  
     223A      1.420346   224A      1.437163   225A      1.475258  
     226A      1.484574   227A      1.499069   228A      1.502238  
     229A      1.504432   230A      1.510001   231A      1.522292  
     232A      1.524830   233A      1.533989   234A      1.551961  
     235A      1.569347   236A      1.572981   237A      1.577946  
     238A      1.592834   239A      1.600145   240A      1.604839  
     241A      1.623697   242A      1.640586   243A      1.650492  
     244A      1.655443   245A      1.677626   246A      1.681989  
     247A      1.693113   248A      1.700886   249A      1.712973  
     250A      1.723695   251A      1.734606   252A      1.759321  
     253A      1.760411   254A      1.772860   255A      1.775625  
     256A      1.785919   257A      1.823875   258A      1.826940  
     259A      1.850100   260A      1.874879   261A      1.903228  
     262A      1.920033   263A      1.930616   264A      1.957799  
     265A      1.984017   266A      1.984546   267A      2.010026  
     268A      2.021612   269A      2.062001   270A      2.069187  
     271A      2.091843   272A      2.103081   273A      2.115625  
     274A      2.137973   275A      2.155536   276A      2.164217  
     277A      2.180731   278A      2.190357   279A      2.195608  
     280A      2.201087   281A      2.205958   282A      2.213512  
     283A      2.229706   284A      2.235122   285A      2.242554  
     286A      2.251352   287A      2.262371   288A      2.290703  
     289A      2.333079   290A      2.342148   291A      2.375832  
     292A      2.384637   293A      2.451815   294A      2.453941  
     295A      2.466486   296A      2.492968   297A      2.525742  
     298A      2.529707   299A      2.534888   300A      2.538573  
     301A      2.601435   302A      2.626548   303A      2.634003  
     304A      2.646972   305A      2.672291   306A      2.682699  
     307A      2.699552   308A      2.719429   309A      2.720816  
     310A      2.724236   311A      2.730955   312A      2.731813  
     313A      2.758672   314A      2.780736   315A      2.854174  
     316A      2.864672   317A      2.879771   318A      2.928980  
     319A      2.963966   320A      2.982949   321A      3.009198  
     322A      3.016755   323A      3.029924   324A      3.033792  
     325A      3.053410   326A      3.074844   327A      3.135328  
     328A      3.164292   329A      3.251012   330A      3.266816  
     331A      3.278497   332A      3.290787   333A      3.292150  
     334A      3.304105   335A      3.375909   336A      3.388471  
     337A      3.420302   338A      3.444514   339A      3.517254  
     340A      3.526720   341A      3.610581   342A      3.621951  
     343A      3.642854   344A      3.658423   345A      3.982743  
     346A      3.993896   347A      4.263071   348A      4.270041  

    Final Occupation by Irrep:
              A 
    DOCC [    42 ]

  @DF-RHF Final Energy:  -525.28184391387845

   => Energetics <=

    Nuclear Repulsion Energy =            588.8820718251466815
    One-Electron Energy =               -1878.6348335147429225
    Two-Electron Energy =                 764.4709177757179077
    Total Energy =                       -525.2818439138784470

Computation Completed


Properties will be evaluated at   0.000000,   0.000000,   0.000000 [a0]

Properties computed using the SCF density matrix

  Nuclear Dipole Moment: [e a0]
     X:  -259.9086      Y:  -149.8134      Z:  -112.3386

  Electronic Dipole Moment: [e a0]
     X:   259.9914      Y:   149.8590      Z:   112.3686

  Dipole Moment: [e a0]
     X:     0.0828      Y:     0.0457      Z:     0.0300     Total:     0.0992

  Dipole Moment: [D]
     X:     0.2104      Y:     0.1161      Z:     0.0762     Total:     0.2521


*** tstop() called on atl1-1-01-013-3-r.pace.gatech.edu at Mon Nov 29 16:11:04 2021
Module time:
	user time   =      44.24 seconds =       0.74 minutes
	system time =       1.38 seconds =       0.02 minutes
	total time  =         23 seconds =       0.38 minutes
Total time:
	user time   =      44.24 seconds =       0.74 minutes
	system time =       1.38 seconds =       0.02 minutes
	total time  =         23 seconds =       0.38 minutes

  //>>>>>>>>>>>>>>>>>>>>>>>>>>>>>>>>>>>//
  //            Monomer A HF           //
  //<<<<<<<<<<<<<<<<<<<<<<<<<<<<<<<<<<<//


*** tstart() called on atl1-1-01-013-3-r.pace.gatech.edu
*** at Mon Nov 29 16:11:04 2021

   => Loading Basis Set <=

    Name: AUG-CC-PVDZ
    Role: ORBITAL
    Keyword: BASIS
    atoms 1-2, 11-12  entry N          line   218 file /storage/home/hhive1/csargent30/data/miniconda3/envs/psi4/share/psi4/basis/aug-cc-pvdz.gbs 
    atoms 3-6, 13-16  entry H          line    40 file /storage/home/hhive1/csargent30/data/miniconda3/envs/psi4/share/psi4/basis/aug-cc-pvdz.gbs 
    atoms 7-10, 17-20 entry C          line   182 file /storage/home/hhive1/csargent30/data/miniconda3/envs/psi4/share/psi4/basis/aug-cc-pvdz.gbs 


         ---------------------------------------------------------
                                   SCF
               by Justin Turney, Rob Parrish, Andy Simmonett
                          and Daniel G. A. Smith
                              RHF Reference
                        2 Threads,   6675 MiB Core
         ---------------------------------------------------------

  ==> Geometry <==

    Molecular point group: c1
    Full point group: C1

    Geometry (in Bohr), charge = 0, multiplicity = 1:

       Center              X                  Y                   Z               Mass       
    ------------   -----------------  -----------------  -----------------  -----------------
         N           -1.330847580000     0.980326580000     0.426270370000    14.003074004430
         N            3.953773330000     0.980326580000     0.426270370000    14.003074004430
         H            3.567136740000     4.352185690000    -0.942309730000     1.007825032230
         H           -0.944210980000     4.352185690000    -0.942309730000     1.007825032230
         H           -0.944210980000    -2.391532530000     1.794850470000     1.007825032230
         H            3.567136740000    -2.391532530000     1.794850470000     1.007825032230
         C            2.622925760000     2.940979740000    -0.426270370000    12.000000000000
         C            0.000000000000     2.940979740000    -0.426270370000    12.000000000000
         C            0.000000000000    -0.980326580000     1.278811120000    12.000000000000
         C            2.622925760000    -0.980326580000     1.278811120000    12.000000000000
      Gh(N)         -10.142073580000    -4.547311310000    -3.100997930000    14.003074004430
      Gh(N)          -4.857452670000    -4.547311310000    -3.100997930000    14.003074004430
      Gh(H)          -9.755436980000    -7.919170420000    -4.469578030000     1.007825032230
      Gh(H)          -9.755436980000    -1.175452200000    -1.732417830000     1.007825032230
      Gh(H)          -5.244089270000    -7.919170420000    -4.469578030000     1.007825032230
      Gh(H)          -5.244089270000    -1.175452200000    -1.732417830000     1.007825032230
      Gh(C)          -8.811226010000    -6.507964470000    -3.953538670000    12.000000000000
      Gh(C)          -8.811226010000    -2.586658150000    -2.248457180000    12.000000000000
      Gh(C)          -6.188300250000    -6.507964470000    -3.953538670000    12.000000000000
      Gh(C)          -6.188300250000    -2.586658150000    -2.248457180000    12.000000000000

  Running in c1 symmetry.

  Rotational constants: A =      0.09484  B =      0.00772  C =      0.00737 [cm^-1]
  Rotational constants: A =   2843.11121  B =    231.42650  C =    221.06914 [MHz]
  Nuclear repulsion =  212.551731110485349

  Charge       = 0
  Multiplicity = 1
  Electrons    = 42
  Nalpha       = 21
  Nbeta        = 21

  ==> Algorithm <==

  SCF Algorithm Type is DF.
  DIIS enabled.
  MOM disabled.
  Fractional occupation disabled.
  Guess Type is SAD.
  Energy threshold   = 1.00e-10
  Density threshold  = 1.00e-10
  Integral threshold = 1.00e-12

  ==> Primary Basis <==

  Basis Set: AUG-CC-PVDZ
    Blend: AUG-CC-PVDZ
    Number of shells: 148
    Number of basis functions: 348
    Number of Cartesian functions: 372
    Spherical Harmonics?: true
    Max angular momentum: 2

   => Loading Basis Set <=

    Name: (AUG-CC-PVDZ AUX)
    Role: JKFIT
    Keyword: DF_BASIS_SCF
    atoms 1-2, 11-12  entry N          line   212 file /storage/home/hhive1/csargent30/data/miniconda3/envs/psi4/share/psi4/basis/aug-cc-pvdz-jkfit.gbs 
    atoms 3-6, 13-16  entry H          line    70 file /storage/home/hhive1/csargent30/data/miniconda3/envs/psi4/share/psi4/basis/aug-cc-pvdz-jkfit.gbs 
    atoms 7-10, 17-20 entry C          line   154 file /storage/home/hhive1/csargent30/data/miniconda3/envs/psi4/share/psi4/basis/aug-cc-pvdz-jkfit.gbs 

  ==> Integral Setup <==

  ==> DiskDFJK: Density-Fitted J/K Matrices <==

    J tasked:                  Yes
    K tasked:                  Yes
    wK tasked:                  No
    OpenMP threads:              2
    Integrals threads:           2
    Memory [MiB]:             5006
    Algorithm:                Core
    Integral Cache:           LOAD
    Schwarz Cutoff:          1E-12
    Fitting Condition:       1E-10

   => Auxiliary Basis Set <=

  Basis Set: (AUG-CC-PVDZ AUX)
    Blend: AUG-CC-PVDZ-JKFIT
    Number of shells: 432
    Number of basis functions: 1288
    Number of Cartesian functions: 1492
    Spherical Harmonics?: true
    Max angular momentum: 3

  Minimum eigenvalue in the overlap matrix is 6.0611598360E-06.
  Reciprocal condition number of the overlap matrix is 4.3719010853E-07.
    Using symmetric orthogonalization.

  ==> Pre-Iterations <==

  SCF Guess: Superposition of Atomic Densities via on-the-fly atomic UHF (no occupation information).

   -------------------------
    Irrep   Nso     Nmo    
   -------------------------
     A        348     348 
   -------------------------
    Total     348     348
   -------------------------

  ==> Iterations <==

                           Total Energy        Delta E     RMS |[F,P]|

   @DF-RHF iter SAD:  -262.32523451857048   -2.62325e+02   0.00000e+00 
   @DF-RHF iter   1:  -262.53973438876409   -2.14500e-01   1.12081e-03 DIIS
   @DF-RHF iter   2:  -262.62911601736261   -8.93816e-02   4.10799e-04 DIIS
   @DF-RHF iter   3:  -262.63895384699600   -9.83783e-03   1.28284e-04 DIIS
   @DF-RHF iter   4:  -262.64017923009686   -1.22538e-03   3.77624e-05 DIIS
   @DF-RHF iter   5:  -262.64026887994180   -8.96498e-05   7.57447e-06 DIIS
   @DF-RHF iter   6:  -262.64027545184490   -6.57190e-06   2.45619e-06 DIIS
   @DF-RHF iter   7:  -262.64027640642462   -9.54580e-07   6.41223e-07 DIIS
   @DF-RHF iter   8:  -262.64027648055094   -7.41263e-08   1.02367e-07 DIIS
   @DF-RHF iter   9:  -262.64027648252630   -1.97537e-09   3.52934e-08 DIIS
   @DF-RHF iter  10:  -262.64027648263777   -1.11470e-10   1.47129e-08 DIIS
   @DF-RHF iter  11:  -262.64027648265903   -2.12594e-11   1.89562e-09 DIIS
   @DF-RHF iter  12:  -262.64027648266102   -1.98952e-12   3.57314e-10 DIIS
   @DF-RHF iter  13:  -262.64027648266057    4.54747e-13   1.31254e-10 DIIS
   @DF-RHF iter  14:  -262.64027648266085   -2.84217e-13   6.55404e-11 DIIS
  Energy and wave function converged.


  ==> Post-Iterations <==

    Orbital Energies [Eh]
    ---------------------

    Doubly Occupied:                                                      

       1A    -15.598068     2A    -15.598040     3A    -11.274163  
       4A    -11.274108     5A    -11.272906     6A    -11.272872  
       7A     -1.313297     8A     -1.224123     9A     -1.076758  
      10A     -0.922614    11A     -0.919241    12A     -0.760599  
      13A     -0.738371    14A     -0.706167    15A     -0.647644  
      16A     -0.580673    17A     -0.574370    18A     -0.497069  
      19A     -0.434256    20A     -0.415815    21A     -0.359908  

    Virtual:                                                              

      22A      0.023364    23A      0.036108    24A      0.036863  
      25A      0.044577    26A      0.050143    27A      0.056387  
      28A      0.060325    29A      0.068296    30A      0.071449  
      31A      0.089789    32A      0.093816    33A      0.098591  
      34A      0.099493    35A      0.103135    36A      0.108519  
      37A      0.113779    38A      0.114260    39A      0.121450  
      40A      0.127951    41A      0.131491    42A      0.136669  
      43A      0.143195    44A      0.150643    45A      0.155223  
      46A      0.157867    47A      0.159408    48A      0.160014  
      49A      0.164554    50A      0.167170    51A      0.174911  
      52A      0.178207    53A      0.182666    54A      0.189851  
      55A      0.194127    56A      0.198663    57A      0.211810  
      58A      0.215461    59A      0.220074    60A      0.231792  
      61A      0.238630    62A      0.245318    63A      0.251141  
      64A      0.258177    65A      0.264947    66A      0.269180  
      67A      0.276112    68A      0.286050    69A      0.295467  
      70A      0.300235    71A      0.307024    72A      0.310428  
      73A      0.315020    74A      0.320049    75A      0.325272  
      76A      0.327205    77A      0.346324    78A      0.349975  
      79A      0.351783    80A      0.359871    81A      0.363207  
      82A      0.380203    83A      0.385802    84A      0.391809  
      85A      0.400253    86A      0.412420    87A      0.416084  
      88A      0.421363    89A      0.427624    90A      0.433805  
      91A      0.437994    92A      0.445826    93A      0.448277  
      94A      0.454922    95A      0.455961    96A      0.474018  
      97A      0.477093    98A      0.481692    99A      0.498139  
     100A      0.505057   101A      0.507670   102A      0.513955  
     103A      0.518506   104A      0.531502   105A      0.532038  
     106A      0.538066   107A      0.552957   108A      0.556585  
     109A      0.568355   110A      0.575191   111A      0.580812  
     112A      0.581870   113A      0.587097   114A      0.595962  
     115A      0.601587   116A      0.606332   117A      0.609729  
     118A      0.613982   119A      0.624764   120A      0.629780  
     121A      0.639341   122A      0.645265   123A      0.652303  
     124A      0.659015   125A      0.665837   126A      0.680285  
     127A      0.686686   128A      0.694032   129A      0.697147  
     130A      0.700861   131A      0.704258   132A      0.715401  
     133A      0.727302   134A      0.732058   135A      0.740044  
     136A      0.751680   137A      0.764312   138A      0.766313  
     139A      0.777153   140A      0.779993   141A      0.781634  
     142A      0.796000   143A      0.799933   144A      0.807925  
     145A      0.820997   146A      0.830202   147A      0.836530  
     148A      0.843672   149A      0.854860   150A      0.860320  
     151A      0.867798   152A      0.877704   153A      0.890592  
     154A      0.893731   155A      0.901142   156A      0.908888  
     157A      0.922153   158A      0.924801   159A      0.937577  
     160A      0.942552   161A      0.949953   162A      0.957932  
     163A      0.963117   164A      0.980085   165A      0.987198  
     166A      0.999519   167A      1.012602   168A      1.018515  
     169A      1.033814   170A      1.039836   171A      1.049677  
     172A      1.060250   173A      1.074136   174A      1.075491  
     175A      1.095844   176A      1.104956   177A      1.119612  
     178A      1.129263   179A      1.135767   180A      1.142872  
     181A      1.154528   182A      1.160239   183A      1.168208  
     184A      1.176562   185A      1.189733   186A      1.195323  
     187A      1.207721   188A      1.211858   189A      1.225967  
     190A      1.237172   191A      1.240755   192A      1.258970  
     193A      1.271670   194A      1.287650   195A      1.316082  
     196A      1.325352   197A      1.333166   198A      1.343474  
     199A      1.352375   200A      1.358996   201A      1.370061  
     202A      1.398334   203A      1.406802   204A      1.432220  
     205A      1.460171   206A      1.489905   207A      1.493279  
     208A      1.503173   209A      1.512671   210A      1.518303  
     211A      1.521546   212A      1.531815   213A      1.549409  
     214A      1.585730   215A      1.597839   216A      1.625041  
     217A      1.644022   218A      1.660642   219A      1.669671  
     220A      1.684155   221A      1.691565   222A      1.698659  
     223A      1.725469   224A      1.762084   225A      1.771278  
     226A      1.778848   227A      1.829581   228A      1.848037  
     229A      1.904671   230A      1.933107   231A      1.981537  
     232A      2.009746   233A      2.048503   234A      2.085433  
     235A      2.093045   236A      2.118682   237A      2.122010  
     238A      2.155530   239A      2.165965   240A      2.168960  
     241A      2.178447   242A      2.195789   243A      2.198202  
     244A      2.206268   245A      2.209991   246A      2.237740  
     247A      2.243502   248A      2.250773   249A      2.268419  
     250A      2.279962   251A      2.292706   252A      2.328990  
     253A      2.338240   254A      2.351115   255A      2.375891  
     256A      2.417055   257A      2.435255   258A      2.448255  
     259A      2.456566   260A      2.479658   261A      2.486843  
     262A      2.506328   263A      2.519508   264A      2.521025  
     265A      2.525030   266A      2.539051   267A      2.552051  
     268A      2.567214   269A      2.605432   270A      2.615998  
     271A      2.640441   272A      2.649229   273A      2.654901  
     274A      2.683914   275A      2.718982   276A      2.719903  
     277A      2.726871   278A      2.734682   279A      2.744359  
     280A      2.780128   281A      2.788739   282A      2.858871  
     283A      2.921625   284A      2.948804   285A      2.970021  
     286A      2.976021   287A      3.003606   288A      3.008492  
     289A      3.017519   290A      3.041154   291A      3.061046  
     292A      3.070730   293A      3.114546   294A      3.144866  
     295A      3.172760   296A      3.256630   297A      3.273164  
     298A      3.284071   299A      3.290292   300A      3.324601  
     301A      3.350639   302A      3.359285   303A      3.367602  
     304A      3.375345   305A      3.387679   306A      3.393580  
     307A      3.420855   308A      3.450201   309A      3.492764  
     310A      3.518841   311A      3.538118   312A      3.554990  
     313A      3.613353   314A      3.625472   315A      3.642064  
     316A      3.654083   317A      3.715429   318A      3.840758  
     319A      3.843288   320A      3.954415   321A      3.979745  
     322A      3.987664   323A      4.077859   324A      4.224489  
     325A      4.264844   326A      4.298128   327A      4.460187  
     328A      4.560155   329A      4.612473   330A      4.892019  
     331A      4.990788   332A      5.083984   333A      5.284044  
     334A      5.335795   335A      5.652780   336A      5.721262  
     337A      5.846401   338A      5.965975   339A      6.295549  
     340A      6.316347   341A      6.467904   342A      6.641652  
     343A     18.133020   344A     18.225603   345A     19.051812  
     346A     19.397991   347A     25.294364   348A     25.379632  

    Final Occupation by Irrep:
              A 
    DOCC [    21 ]

  @DF-RHF Final Energy:  -262.64027648266085

   => Energetics <=

    Nuclear Repulsion Energy =            212.5517311104853491
    One-Electron Energy =                -775.4618936398920823
    Two-Electron Energy =                 300.2698860467459099
    Total Energy =                       -262.6402764826608518

Computation Completed


Properties will be evaluated at   0.000000,   0.000000,   0.000000 [a0]

Properties computed using the SCF density matrix

  Nuclear Dipole Moment: [e a0]
     X:    55.0814      Y:    41.1737      Z:    17.9034

  Electronic Dipole Moment: [e a0]
     X:   -55.0825      Y:   -41.1736      Z:   -17.9035

  Dipole Moment: [e a0]
     X:    -0.0011      Y:     0.0001      Z:    -0.0002     Total:     0.0011

  Dipole Moment: [D]
     X:    -0.0028      Y:     0.0002      Z:    -0.0005     Total:     0.0029


*** tstop() called on atl1-1-01-013-3-r.pace.gatech.edu at Mon Nov 29 16:11:18 2021
Module time:
	user time   =      25.69 seconds =       0.43 minutes
	system time =       0.65 seconds =       0.01 minutes
	total time  =         14 seconds =       0.23 minutes
Total time:
	user time   =      69.94 seconds =       1.17 minutes
	system time =       2.03 seconds =       0.03 minutes
	total time  =         37 seconds =       0.62 minutes

  //>>>>>>>>>>>>>>>>>>>>>>>>>>>>>>>>>>>//
  //            Monomer B HF           //
  //<<<<<<<<<<<<<<<<<<<<<<<<<<<<<<<<<<<//


*** tstart() called on atl1-1-01-013-3-r.pace.gatech.edu
*** at Mon Nov 29 16:11:18 2021

   => Loading Basis Set <=

    Name: AUG-CC-PVDZ
    Role: ORBITAL
    Keyword: BASIS
    atoms 1-2, 11-12  entry N          line   218 file /storage/home/hhive1/csargent30/data/miniconda3/envs/psi4/share/psi4/basis/aug-cc-pvdz.gbs 
    atoms 3-6, 13-16  entry H          line    40 file /storage/home/hhive1/csargent30/data/miniconda3/envs/psi4/share/psi4/basis/aug-cc-pvdz.gbs 
    atoms 7-10, 17-20 entry C          line   182 file /storage/home/hhive1/csargent30/data/miniconda3/envs/psi4/share/psi4/basis/aug-cc-pvdz.gbs 


         ---------------------------------------------------------
                                   SCF
               by Justin Turney, Rob Parrish, Andy Simmonett
                          and Daniel G. A. Smith
                              RHF Reference
                        2 Threads,   6675 MiB Core
         ---------------------------------------------------------

  ==> Geometry <==

    Molecular point group: c1
    Full point group: C1

    Geometry (in Bohr), charge = 0, multiplicity = 1:

       Center              X                  Y                   Z               Mass       
    ------------   -----------------  -----------------  -----------------  -----------------
      Gh(N)          -1.330847580000     0.980326580000     0.426270370000    14.003074004430
      Gh(N)           3.953773330000     0.980326580000     0.426270370000    14.003074004430
      Gh(H)           3.567136740000     4.352185690000    -0.942309730000     1.007825032230
      Gh(H)          -0.944210980000     4.352185690000    -0.942309730000     1.007825032230
      Gh(H)          -0.944210980000    -2.391532530000     1.794850470000     1.007825032230
      Gh(H)           3.567136740000    -2.391532530000     1.794850470000     1.007825032230
      Gh(C)           2.622925760000     2.940979740000    -0.426270370000    12.000000000000
      Gh(C)           0.000000000000     2.940979740000    -0.426270370000    12.000000000000
      Gh(C)           0.000000000000    -0.980326580000     1.278811120000    12.000000000000
      Gh(C)           2.622925760000    -0.980326580000     1.278811120000    12.000000000000
         N          -10.142073580000    -4.547311310000    -3.100997930000    14.003074004430
         N           -4.857452670000    -4.547311310000    -3.100997930000    14.003074004430
         H           -9.755436980000    -7.919170420000    -4.469578030000     1.007825032230
         H           -9.755436980000    -1.175452200000    -1.732417830000     1.007825032230
         H           -5.244089270000    -7.919170420000    -4.469578030000     1.007825032230
         H           -5.244089270000    -1.175452200000    -1.732417830000     1.007825032230
         C           -8.811226010000    -6.507964470000    -3.953538670000    12.000000000000
         C           -8.811226010000    -2.586658150000    -2.248457180000    12.000000000000
         C           -6.188300250000    -6.507964470000    -3.953538670000    12.000000000000
         C           -6.188300250000    -2.586658150000    -2.248457180000    12.000000000000

  Running in c1 symmetry.

  Rotational constants: A =      0.09484  B =      0.00772  C =      0.00737 [cm^-1]
  Rotational constants: A =   2843.11121  B =    231.42650  C =    221.06914 [MHz]
  Nuclear repulsion =  212.551731143112931

  Charge       = 0
  Multiplicity = 1
  Electrons    = 42
  Nalpha       = 21
  Nbeta        = 21

  ==> Algorithm <==

  SCF Algorithm Type is DF.
  DIIS enabled.
  MOM disabled.
  Fractional occupation disabled.
  Guess Type is SAD.
  Energy threshold   = 1.00e-10
  Density threshold  = 1.00e-10
  Integral threshold = 1.00e-12

  ==> Primary Basis <==

  Basis Set: AUG-CC-PVDZ
    Blend: AUG-CC-PVDZ
    Number of shells: 148
    Number of basis functions: 348
    Number of Cartesian functions: 372
    Spherical Harmonics?: true
    Max angular momentum: 2

   => Loading Basis Set <=

    Name: (AUG-CC-PVDZ AUX)
    Role: JKFIT
    Keyword: DF_BASIS_SCF
    atoms 1-2, 11-12  entry N          line   212 file /storage/home/hhive1/csargent30/data/miniconda3/envs/psi4/share/psi4/basis/aug-cc-pvdz-jkfit.gbs 
    atoms 3-6, 13-16  entry H          line    70 file /storage/home/hhive1/csargent30/data/miniconda3/envs/psi4/share/psi4/basis/aug-cc-pvdz-jkfit.gbs 
    atoms 7-10, 17-20 entry C          line   154 file /storage/home/hhive1/csargent30/data/miniconda3/envs/psi4/share/psi4/basis/aug-cc-pvdz-jkfit.gbs 

  ==> Integral Setup <==

  ==> DiskDFJK: Density-Fitted J/K Matrices <==

    J tasked:                  Yes
    K tasked:                  Yes
    wK tasked:                  No
    OpenMP threads:              2
    Integrals threads:           2
    Memory [MiB]:             5006
    Algorithm:                Core
    Integral Cache:           LOAD
    Schwarz Cutoff:          1E-12
    Fitting Condition:       1E-10

   => Auxiliary Basis Set <=

  Basis Set: (AUG-CC-PVDZ AUX)
    Blend: AUG-CC-PVDZ-JKFIT
    Number of shells: 432
    Number of basis functions: 1288
    Number of Cartesian functions: 1492
    Spherical Harmonics?: true
    Max angular momentum: 3

  Minimum eigenvalue in the overlap matrix is 6.0611598360E-06.
  Reciprocal condition number of the overlap matrix is 4.3719010853E-07.
    Using symmetric orthogonalization.

  ==> Pre-Iterations <==

  SCF Guess: Superposition of Atomic Densities via on-the-fly atomic UHF (no occupation information).

   -------------------------
    Irrep   Nso     Nmo    
   -------------------------
     A        348     348 
   -------------------------
    Total     348     348
   -------------------------

  ==> Iterations <==

                           Total Energy        Delta E     RMS |[F,P]|

   @DF-RHF iter SAD:  -262.32523436131260   -2.62325e+02   0.00000e+00 
   @DF-RHF iter   1:  -262.53969605485821   -2.14462e-01   1.12069e-03 DIIS
   @DF-RHF iter   2:  -262.62909017327087   -8.93941e-02   4.10816e-04 DIIS
   @DF-RHF iter   3:  -262.63892920868130   -9.83904e-03   1.28280e-04 DIIS
   @DF-RHF iter   4:  -262.64015447973401   -1.22527e-03   3.77627e-05 DIIS
   @DF-RHF iter   5:  -262.64024411659301   -8.96369e-05   7.56909e-06 DIIS
   @DF-RHF iter   6:  -262.64025067953258   -6.56294e-06   2.45383e-06 DIIS
   @DF-RHF iter   7:  -262.64025163258503   -9.53052e-07   6.40502e-07 DIIS
   @DF-RHF iter   8:  -262.64025170656515   -7.39801e-08   1.00009e-07 DIIS
   @DF-RHF iter   9:  -262.64025170855393   -1.98878e-09   2.38128e-08 DIIS
   @DF-RHF iter  10:  -262.64025170862578   -7.18501e-11   1.35061e-08 DIIS
   @DF-RHF iter  11:  -262.64025170864028   -1.44951e-11   1.98495e-09 DIIS
   @DF-RHF iter  12:  -262.64025170864102   -7.38964e-13   3.65026e-10 DIIS
   @DF-RHF iter  13:  -262.64025170864039    6.25278e-13   1.73562e-10 DIIS
   @DF-RHF iter  14:  -262.64025170864028    1.13687e-13   5.24534e-11 DIIS
  Energy and wave function converged.


  ==> Post-Iterations <==

    Orbital Energies [Eh]
    ---------------------

    Doubly Occupied:                                                      

       1A    -15.598076     2A    -15.598054     3A    -11.274205  
       4A    -11.274118     5A    -11.272955     6A    -11.272878  
       7A     -1.313320     8A     -1.224145     9A     -1.076781  
      10A     -0.922633    11A     -0.919266    12A     -0.760614  
      13A     -0.738386    14A     -0.706191    15A     -0.647671  
      16A     -0.580693    17A     -0.574374    18A     -0.497082  
      19A     -0.434282    20A     -0.415834    21A     -0.359914  

    Virtual:                                                              

      22A      0.022909    23A      0.035391    24A      0.036425  
      25A      0.043749    26A      0.051466    27A      0.055003  
      28A      0.060149    29A      0.070283    30A      0.073020  
      31A      0.085805    32A      0.092370    33A      0.098914  
      34A      0.100229    35A      0.104668    36A      0.109388  
      37A      0.111380    38A      0.115440    39A      0.121686  
      40A      0.128308    41A      0.132424    42A      0.135210  
      43A      0.145079    44A      0.148672    45A      0.149206  
      46A      0.152728    47A      0.156752    48A      0.160592  
      49A      0.163027    50A      0.170286    51A      0.175527  
      52A      0.179192    53A      0.185913    54A      0.191362  
      55A      0.197982    56A      0.206058    57A      0.215034  
      58A      0.215471    59A      0.220025    60A      0.227775  
      61A      0.230879    62A      0.237592    63A      0.249559  
      64A      0.256105    65A      0.265044    66A      0.270700  
      67A      0.278161    68A      0.282980    69A      0.290844  
      70A      0.294144    71A      0.298369    72A      0.307915  
      73A      0.318357    74A      0.320920    75A      0.325036  
      76A      0.326869    77A      0.338558    78A      0.338936  
      79A      0.353785    80A      0.361502    81A      0.371421  
      82A      0.377812    83A      0.389888    84A      0.395205  
      85A      0.400649    86A      0.411994    87A      0.415036  
      88A      0.423217    89A      0.429016    90A      0.432666  
      91A      0.436587    92A      0.443738    93A      0.450316  
      94A      0.451411    95A      0.462388    96A      0.473263  
      97A      0.482869    98A      0.486312    99A      0.495765  
     100A      0.501920   101A      0.503341   102A      0.515690  
     103A      0.527657   104A      0.531399   105A      0.538973  
     106A      0.540539   107A      0.547932   108A      0.556462  
     109A      0.558893   110A      0.566952   111A      0.571417  
     112A      0.575152   113A      0.581161   114A      0.592585  
     115A      0.593154   116A      0.601187   117A      0.611138  
     118A      0.613852   119A      0.622062   120A      0.630533  
     121A      0.636381   122A      0.646001   123A      0.659352  
     124A      0.663725   125A      0.666251   126A      0.678282  
     127A      0.690957   128A      0.693466   129A      0.695502  
     130A      0.701595   131A      0.708404   132A      0.714475  
     133A      0.721196   134A      0.728829   135A      0.749166  
     136A      0.756507   137A      0.764976   138A      0.769951  
     139A      0.772651   140A      0.773277   141A      0.787533  
     142A      0.790414   143A      0.796379   144A      0.807532  
     145A      0.808819   146A      0.818741   147A      0.839718  
     148A      0.850410   149A      0.855571   150A      0.859761  
     151A      0.869604   152A      0.870905   153A      0.883146  
     154A      0.893581   155A      0.900410   156A      0.903802  
     157A      0.909452   158A      0.920515   159A      0.926276  
     160A      0.937645   161A      0.944737   162A      0.954846  
     163A      0.966637   164A      0.979258   165A      0.991621  
     166A      0.997610   167A      1.010811   168A      1.027424  
     169A      1.032062   170A      1.037125   171A      1.045571  
     172A      1.048594   173A      1.071989   174A      1.080075  
     175A      1.092883   176A      1.112382   177A      1.116624  
     178A      1.120652   179A      1.132799   180A      1.133568  
     181A      1.144519   182A      1.154216   183A      1.174589  
     184A      1.176359   185A      1.186857   186A      1.187786  
     187A      1.198159   188A      1.208132   189A      1.221659  
     190A      1.232414   191A      1.238909   192A      1.254039  
     193A      1.275222   194A      1.287673   195A      1.292974  
     196A      1.325883   197A      1.334017   198A      1.345233  
     199A      1.353040   200A      1.364525   201A      1.389365  
     202A      1.397996   203A      1.415830   204A      1.433361  
     205A      1.458295   206A      1.481276   207A      1.483493  
     208A      1.496924   209A      1.500768   210A      1.511658  
     211A      1.521273   212A      1.531810   213A      1.570149  
     214A      1.570564   215A      1.591277   216A      1.615988  
     217A      1.631322   218A      1.662928   219A      1.674945  
     220A      1.688364   221A      1.696613   222A      1.716744  
     223A      1.726963   224A      1.741103   225A      1.754894  
     226A      1.783165   227A      1.825825   228A      1.865167  
     229A      1.917455   230A      1.947397   231A      1.984452  
     232A      2.012520   233A      2.057244   234A      2.080742  
     235A      2.100543   236A      2.119734   237A      2.142438  
     238A      2.154905   239A      2.167221   240A      2.174755  
     241A      2.177915   242A      2.189764   243A      2.200550  
     244A      2.207235   245A      2.219945   246A      2.227259  
     247A      2.236098   248A      2.259396   249A      2.263323  
     250A      2.275214   251A      2.288925   252A      2.325307  
     253A      2.334289   254A      2.345685   255A      2.375506  
     256A      2.409631   257A      2.428696   258A      2.450962  
     259A      2.454108   260A      2.457906   261A      2.470617  
     262A      2.493304   263A      2.502588   264A      2.509980  
     265A      2.526945   266A      2.535773   267A      2.555963  
     268A      2.583349   269A      2.592369   270A      2.599676  
     271A      2.609939   272A      2.638818   273A      2.642283  
     274A      2.675401   275A      2.700025   276A      2.717085  
     277A      2.721349   278A      2.727958   279A      2.738137  
     280A      2.752855   281A      2.787276   282A      2.855649  
     283A      2.874273   284A      2.936817   285A      2.959233  
     286A      2.970146   287A      3.006706   288A      3.022429  
     289A      3.026046   290A      3.046593   291A      3.052236  
     292A      3.071683   293A      3.086302   294A      3.123468  
     295A      3.151252   296A      3.261303   297A      3.270498  
     298A      3.284123   299A      3.290355   300A      3.333296  
     301A      3.350590   302A      3.358705   303A      3.368924  
     304A      3.385070   305A      3.393675   306A      3.403170  
     307A      3.431155   308A      3.436643   309A      3.475249  
     310A      3.518036   311A      3.543066   312A      3.587509  
     313A      3.621032   314A      3.630714   315A      3.649106  
     316A      3.678765   317A      3.804460   318A      3.834427  
     319A      3.840783   320A      3.950810   321A      3.974291  
     322A      3.991599   323A      4.093020   324A      4.234886  
     325A      4.260745   326A      4.278551   327A      4.458256  
     328A      4.557173   329A      4.638579   330A      4.898328  
     331A      4.981354   332A      5.092686   333A      5.281466  
     334A      5.330145   335A      5.643560   336A      5.712024  
     337A      5.835852   338A      5.963474   339A      6.291244  
     340A      6.310838   341A      6.458619   342A      6.635474  
     343A     18.130863   344A     18.212888   345A     19.032576  
     346A     19.381327   347A     25.291443   348A     25.376614  

    Final Occupation by Irrep:
              A 
    DOCC [    21 ]

  @DF-RHF Final Energy:  -262.64025170864028

   => Energetics <=

    Nuclear Repulsion Energy =            212.5517311431129315
    One-Electron Energy =                -775.4610240867853008
    Two-Electron Energy =                 300.2690412350321481
    Total Energy =                       -262.6402517086402781

Computation Completed


Properties will be evaluated at   0.000000,   0.000000,   0.000000 [a0]

Properties computed using the SCF density matrix

  Nuclear Dipole Moment: [e a0]
     X:  -314.9901      Y:  -190.9871      Z:  -130.2419

  Electronic Dipole Moment: [e a0]
     X:   314.9902      Y:   190.9871      Z:   130.2418

  Dipole Moment: [e a0]
     X:     0.0002      Y:     0.0000      Z:    -0.0001     Total:     0.0002

  Dipole Moment: [D]
     X:     0.0005      Y:     0.0000      Z:    -0.0004     Total:     0.0006


*** tstop() called on atl1-1-01-013-3-r.pace.gatech.edu at Mon Nov 29 16:11:32 2021
Module time:
	user time   =      25.39 seconds =       0.42 minutes
	system time =       0.63 seconds =       0.01 minutes
	total time  =         14 seconds =       0.23 minutes
Total time:
	user time   =      95.34 seconds =       1.59 minutes
	system time =       2.66 seconds =       0.04 minutes
	total time  =         51 seconds =       0.85 minutes
  Constructing Basis Sets for SAPT...

   => Loading Basis Set <=

    Name: (AUG-CC-PVDZ AUX)
    Role: RIFIT
    Keyword: DF_BASIS_SAPT
    atoms 1-2, 11-12  entry N          line   158 file /storage/home/hhive1/csargent30/data/miniconda3/envs/psi4/share/psi4/basis/aug-cc-pvdz-ri.gbs 
    atoms 3-6, 13-16  entry H          line    30 file /storage/home/hhive1/csargent30/data/miniconda3/envs/psi4/share/psi4/basis/aug-cc-pvdz-ri.gbs 
    atoms 7-10, 17-20 entry C          line   112 file /storage/home/hhive1/csargent30/data/miniconda3/envs/psi4/share/psi4/basis/aug-cc-pvdz-ri.gbs 


  //>>>>>>>>>>>>>>>>>>>>>>>>>>>>>>>>>>>//
  //               SAPT0               //
  //<<<<<<<<<<<<<<<<<<<<<<<<<<<<<<<<<<<//


*** tstart() called on atl1-1-01-013-3-r.pace.gatech.edu
*** at Mon Nov 29 16:11:32 2021

        SAPT0  
    Ed Hohenstein
     6 June 2009

      Orbital Information
  --------------------------
    NSO        =       348
    NMO        =       348
    NRI        =      1048
    NOCC A     =        21
    NOCC B     =        21
    FOCC A     =         6
    FOCC B     =         6
    NVIR A     =       327
    NVIR B     =       327

    Elst10,r            =    -0.003516771070 [Eh]
    Exch10              =     0.002832173505 [Eh]
    Exch10 (S^2)        =     0.002826709019 [Eh]

    Iter     Energy [mEh]          dE [mEh]         Residual      Time [s]
       1      -0.49310832       0.493108318       4.474089409             1
       2      -0.57587349       0.082765169       2.355436672             1
       3      -0.63117445       0.055300963       0.585908491             2
       4      -0.62868892      -0.002485533       0.344898901             2
       5      -0.62621326      -0.002475661       0.150921614             2
       6      -0.62678835       0.000575093       0.072368884             3
       7      -0.62722660       0.000438247       0.018754091             3
       8      -0.62717088      -0.000055713       0.006349570             3
       9      -0.62715064      -0.000020240       0.002295338             4
      10      -0.62715105       0.000000406       0.000932991             4
      11      -0.62715466       0.000003614       0.000366644             4
      12      -0.62715471       0.000000047       0.000154870             5
      13      -0.62715404      -0.000000675       0.000055820             5
      14      -0.62715414       0.000000100       0.000021299             6
      15      -0.62715420       0.000000065       0.000006215             6
      16      -0.62715418      -0.000000020       0.000001790             6
      17      -0.62715418      -0.000000000       0.000000680             7

    CHF Iterations converged


    Iter     Energy [mEh]          dE [mEh]         Residual      Time [s]
       1      -0.28266372       0.282663719       3.504541825             0
       2      -0.30481276       0.022149045       1.397390051             0
       3      -0.33309246       0.028279694       0.366085978             1
       4      -0.33174902      -0.001343437       0.239551012             1
       5      -0.33051576      -0.001233265       0.087877431             1
       6      -0.33092640       0.000410646       0.037137589             2
       7      -0.33104813       0.000121729       0.011432201             2
       8      -0.33104245      -0.000005678       0.004203206             3
       9      -0.33102904      -0.000013414       0.001652093             3
      10      -0.33102772      -0.000001320       0.000736444             3
      11      -0.33102996       0.000002244       0.000354490             4
      12      -0.33103042       0.000000458       0.000122923             4
      13      -0.33102991      -0.000000515       0.000038506             4
      14      -0.33102990      -0.000000002       0.000013078             5
      15      -0.33102995       0.000000044       0.000003798             5
      16      -0.33102995      -0.000000002       0.000001203             5
      17      -0.33102994      -0.000000003       0.000000450             6

    CHF Iterations converged

    Ind20,r (A<-B)      =    -0.000627154182 [Eh]
    Ind20,r (B<-A)      =    -0.000331029943 [Eh]
    Ind20,r             =    -0.000958184125 [Eh]
    Exch-Ind20,r (A<-B) =     0.000435345258 [Eh]
    Exch-Ind20,r (B<-A) =     0.000139630300 [Eh]
    Exch-Ind20,r        =     0.000574975558 [Eh]
    Disp20              =    -0.003559299720 [Eh]
    Disp20 (SS)         =    -0.001779649860 [Eh]
    Disp20 (OS)         =    -0.001779649860 [Eh]
    Exch-Disp20         =     0.000273136163 [Eh]
    Exch-Disp20 (SS)    =     0.000174055049 [Eh]
    Exch-Disp20 (OS)    =     0.000099081114 [Eh]

    SAPT Results 
  --------------------------------------------------------------------------------------------------------
    Electrostatics                 -3.51677107 [mEh]      -2.20680716 [kcal/mol]      -9.23328117 [kJ/mol]
      Elst10,r                     -3.51677107 [mEh]      -2.20680716 [kcal/mol]      -9.23328117 [kJ/mol]

    Exchange                        2.83217351 [mEh]       1.77721571 [kcal/mol]       7.43587051 [kJ/mol]
      Exch10                        2.83217351 [mEh]       1.77721571 [kcal/mol]       7.43587051 [kJ/mol]
      Exch10(S^2)                   2.82670902 [mEh]       1.77378669 [kcal/mol]       7.42152351 [kJ/mol]

    Induction                      -0.63112501 [mEh]      -0.39603692 [kcal/mol]      -1.65701849 [kJ/mol]
      Ind20,r                      -0.95818413 [mEh]      -0.60126962 [kcal/mol]      -2.51571207 [kJ/mol]
      Exch-Ind20,r                  0.57497556 [mEh]       0.36080261 [kcal/mol]       1.50959812 [kJ/mol]
      delta HF,r (2)               -0.24791645 [mEh]      -0.15556992 [kcal/mol]      -0.65090454 [kJ/mol]

    Dispersion                     -3.28616356 [mEh]      -2.06209876 [kcal/mol]      -8.62782123 [kJ/mol]
      Disp20                       -3.55929972 [mEh]      -2.23349429 [kcal/mol]      -9.34494013 [kJ/mol]
      Exch-Disp20                   0.27313616 [mEh]       0.17139553 [kcal/mol]       0.71711890 [kJ/mol]
      Disp20 (SS)                  -1.77964986 [mEh]      -1.11674715 [kcal/mol]      -4.67247006 [kJ/mol]
      Disp20 (OS)                  -1.77964986 [mEh]      -1.11674715 [kcal/mol]      -4.67247006 [kJ/mol]
      Exch-Disp20 (SS)              0.17405505 [mEh]       0.10922119 [kcal/mol]       0.45698147 [kJ/mol]
      Exch-Disp20 (OS)              0.09908111 [mEh]       0.06217434 [kcal/mol]       0.26013743 [kJ/mol]

  Total HF                         -1.31572258 [mEh]      -0.82562838 [kcal/mol]      -3.45442915 [kJ/mol]
  Total SAPT0                      -4.60188613 [mEh]      -2.88772715 [kcal/mol]     -12.08225038 [kJ/mol]

  Special recipe for scaled SAPT0 (see Manual):
    Electrostatics sSAPT0          -3.51677107 [mEh]      -2.20680716 [kcal/mol]      -9.23328117 [kJ/mol]
    Exchange sSAPT0                 2.83217351 [mEh]       1.77721571 [kcal/mol]       7.43587051 [kJ/mol]
    Induction sSAPT0               -0.62778400 [mEh]      -0.39394041 [kcal/mol]      -1.64824666 [kJ/mol]
    Dispersion sSAPT0              -3.28457644 [mEh]      -2.06110284 [kcal/mol]      -8.62365426 [kJ/mol]
  Total sSAPT0                     -4.59695801 [mEh]      -2.88463470 [kcal/mol]     -12.06931159 [kJ/mol]
  --------------------------------------------------------------------------------------------------------

*** tstop() called on atl1-1-01-013-3-r.pace.gatech.edu at Mon Nov 29 16:12:03 2021
Module time:
	user time   =      45.99 seconds =       0.77 minutes
	system time =      11.65 seconds =       0.19 minutes
	total time  =         31 seconds =       0.52 minutes
Total time:
	user time   =     141.57 seconds =       2.36 minutes
	system time =      14.31 seconds =       0.24 minutes
	total time  =         82 seconds =       1.37 minutes


Warning! sapt0 does not have an associated derived wavefunction.The returned wavefunction is the dimer SCF wavefunction.


    Psi4 stopped on: Monday, 29 November 2021 04:12PM
    Psi4 wall time for execution: 0:01:22.78

*** Psi4 exiting successfully. Buy a developer a beer!
