
    -----------------------------------------------------------------------
          Psi4: An Open-Source Ab Initio Electronic Structure Package
                               Psi4 1.4.1 release

                         Git: Rev {HEAD} cd00f19 


    D. G. A. Smith, L. A. Burns, A. C. Simmonett, R. M. Parrish,
    M. C. Schieber, R. Galvelis, P. Kraus, H. Kruse, R. Di Remigio,
    A. Alenaizan, A. M. James, S. Lehtola, J. P. Misiewicz, M. Scheurer,
    R. A. Shaw, J. B. Schriber, Y. Xie, Z. L. Glick, D. A. Sirianni,
    J. S. O'Brien, J. M. Waldrop, A. Kumar, E. G. Hohenstein,
    B. P. Pritchard, B. R. Brooks, H. F. Schaefer III, A. Yu. Sokolov,
    K. Patkowski, A. E. DePrince III, U. Bozkaya, R. A. King,
    F. A. Evangelista, J. M. Turney, T. D. Crawford, C. D. Sherrill,
    J. Chem. Phys. 152(18) 184108 (2020). https://doi.org/10.1063/5.0006002

                            Additional Code Authors
    E. T. Seidl, C. L. Janssen, E. F. Valeev, M. L. Leininger,
    J. F. Gonthier, R. M. Richard, H. R. McAlexander, M. Saitow, X. Wang,
    P. Verma, and M. H. Lechner

             Previous Authors, Complete List of Code Contributors,
                       and Citations for Specific Modules
    https://github.com/psi4/psi4/blob/master/codemeta.json
    https://github.com/psi4/psi4/graphs/contributors
    http://psicode.org/psi4manual/master/introduction.html#citing-psifour

    -----------------------------------------------------------------------


    Psi4 started on: Monday, 29 November 2021 04:10PM

    Process ID: 219910
    Host:       atl1-1-01-015-6-r.pace.gatech.edu
    PSIDATADIR: /storage/home/hhive1/csargent30/data/miniconda3/envs/psi4/share/psi4
    Memory:     500.0 MiB
    Threads:    2
    
  ==> Input File <==

--------------------------------------------------------------------------
# PSI4 file produced by CrystaLattE

# Generated from:               pyrazine.xyz
# Psithon input for N-mer:      2mer-0+362
# Number of atoms per monomer:  [10, 10]
# Number of replicas:           2
# COM priority:                 1.979894918649e-05
# Minimum COM separations:      19.561 
# Separation priority:          2.013619901717e-05
# Minimum monomer separations:  19.451 
# Cutoff priority:              5.478184564654e-07
# Nuclear repulsion energy:     472.56435050528216

memory 7 GB

molecule Dimer_0_362 {
  N           -1.33084758       0.98032658       0.42627037 
  N            3.95377333       0.98032658       0.42627037 
  H            3.56713674       4.35218569      -0.94230973 
  H           -0.94421098       4.35218569      -0.94230973 
  H           -0.94421098      -2.39153253       1.79485047 
  H            3.56713674      -2.39153253       1.79485047 
  C            2.62292576       2.94097974      -0.42627037 
  C            0.00000000       2.94097974      -0.42627037 
  C            0.00000000      -0.98032658       1.27881112 
  C            2.62292576      -0.98032658       1.27881112 
--
  N           -1.33084758     -10.07494920     -34.84641262 
  N            3.95377333     -10.07494920     -34.84641262 
  H            3.56713674      -6.70309009     -36.21499272 
  H           -0.94421098      -6.70309009     -36.21499272 
  H           -0.94421098     -13.44680831     -33.47783252 
  H            3.56713674     -13.44680831     -33.47783252 
  C            2.62292576      -8.11429604     -35.69895337 
  C            0.00000000      -8.11429604     -35.69895337 
  C            0.00000000     -12.03560236     -33.99387187 
  C            2.62292576     -12.03560236     -33.99387187 
units = au
no_com
no_reorient
}

set {
  e_convergence 10
  d_convergence 10
  scf_type df
  mp2_type df
  cc_type df
  freeze_core true
}

energy('sapt0/aug-cc-pvdz')

--------------------------------------------------------------------------

  Memory set to   6.519 GiB by Python driver.

Scratch directory: /tmp/

Scratch directory: /tmp/

  //>>>>>>>>>>>>>>>>>>>>>>>>>>>>>>>>>>>//
  //              Dimer HF             //
  //<<<<<<<<<<<<<<<<<<<<<<<<<<<<<<<<<<<//


*** tstart() called on atl1-1-01-015-6-r.pace.gatech.edu
*** at Mon Nov 29 16:10:40 2021

   => Loading Basis Set <=

    Name: AUG-CC-PVDZ
    Role: ORBITAL
    Keyword: BASIS
    atoms 1-2, 11-12  entry N          line   218 file /storage/home/hhive1/csargent30/data/miniconda3/envs/psi4/share/psi4/basis/aug-cc-pvdz.gbs 
    atoms 3-6, 13-16  entry H          line    40 file /storage/home/hhive1/csargent30/data/miniconda3/envs/psi4/share/psi4/basis/aug-cc-pvdz.gbs 
    atoms 7-10, 17-20 entry C          line   182 file /storage/home/hhive1/csargent30/data/miniconda3/envs/psi4/share/psi4/basis/aug-cc-pvdz.gbs 


         ---------------------------------------------------------
                                   SCF
               by Justin Turney, Rob Parrish, Andy Simmonett
                          and Daniel G. A. Smith
                              RHF Reference
                        2 Threads,   6675 MiB Core
         ---------------------------------------------------------

  ==> Geometry <==

    Molecular point group: c1
    Full point group: C1

    Geometry (in Bohr), charge = 0, multiplicity = 1:

       Center              X                  Y                   Z               Mass       
    ------------   -----------------  -----------------  -----------------  -----------------
         N           -1.330847580000     0.980326580000     0.426270370000    14.003074004430
         N            3.953773330000     0.980326580000     0.426270370000    14.003074004430
         H            3.567136740000     4.352185690000    -0.942309730000     1.007825032230
         H           -0.944210980000     4.352185690000    -0.942309730000     1.007825032230
         H           -0.944210980000    -2.391532530000     1.794850470000     1.007825032230
         H            3.567136740000    -2.391532530000     1.794850470000     1.007825032230
         C            2.622925760000     2.940979740000    -0.426270370000    12.000000000000
         C            0.000000000000     2.940979740000    -0.426270370000    12.000000000000
         C            0.000000000000    -0.980326580000     1.278811120000    12.000000000000
         C            2.622925760000    -0.980326580000     1.278811120000    12.000000000000
         N           -1.330847580000   -10.074949200000   -34.846412620000    14.003074004430
         N            3.953773330000   -10.074949200000   -34.846412620000    14.003074004430
         H            3.567136740000    -6.703090090000   -36.214992720000     1.007825032230
         H           -0.944210980000    -6.703090090000   -36.214992720000     1.007825032230
         H           -0.944210980000   -13.446808310000   -33.477832520000     1.007825032230
         H            3.567136740000   -13.446808310000   -33.477832520000     1.007825032230
         C            2.622925760000    -8.114296040000   -35.698953370000    12.000000000000
         C            0.000000000000    -8.114296040000   -35.698953370000    12.000000000000
         C            0.000000000000   -12.035602360000   -33.993871870000    12.000000000000
         C            2.622925760000   -12.035602360000   -33.993871870000    12.000000000000

  Running in c1 symmetry.

  Rotational constants: A =      0.04524  B =      0.00057  C =      0.00057 [cm^-1]
  Rotational constants: A =   1356.37355  B =     17.01901  C =     16.98280 [MHz]
  Nuclear repulsion =  472.564350435644485

  Charge       = 0
  Multiplicity = 1
  Electrons    = 84
  Nalpha       = 42
  Nbeta        = 42

  ==> Algorithm <==

  SCF Algorithm Type is DF.
  DIIS enabled.
  MOM disabled.
  Fractional occupation disabled.
  Guess Type is SAD.
  Energy threshold   = 1.00e-10
  Density threshold  = 1.00e-10
  Integral threshold = 1.00e-12

  ==> Primary Basis <==

  Basis Set: AUG-CC-PVDZ
    Blend: AUG-CC-PVDZ
    Number of shells: 148
    Number of basis functions: 348
    Number of Cartesian functions: 372
    Spherical Harmonics?: true
    Max angular momentum: 2

   => Loading Basis Set <=

    Name: (AUG-CC-PVDZ AUX)
    Role: JKFIT
    Keyword: DF_BASIS_SCF
    atoms 1-2, 11-12  entry N          line   212 file /storage/home/hhive1/csargent30/data/miniconda3/envs/psi4/share/psi4/basis/aug-cc-pvdz-jkfit.gbs 
    atoms 3-6, 13-16  entry H          line    70 file /storage/home/hhive1/csargent30/data/miniconda3/envs/psi4/share/psi4/basis/aug-cc-pvdz-jkfit.gbs 
    atoms 7-10, 17-20 entry C          line   154 file /storage/home/hhive1/csargent30/data/miniconda3/envs/psi4/share/psi4/basis/aug-cc-pvdz-jkfit.gbs 

  ==> Integral Setup <==

  ==> DiskDFJK: Density-Fitted J/K Matrices <==

    J tasked:                  Yes
    K tasked:                  Yes
    wK tasked:                  No
    OpenMP threads:              2
    Integrals threads:           2
    Memory [MiB]:             5006
    Algorithm:                Core
    Integral Cache:           SAVE
    Schwarz Cutoff:          1E-12
    Fitting Condition:       1E-10

   => Auxiliary Basis Set <=

  Basis Set: (AUG-CC-PVDZ AUX)
    Blend: AUG-CC-PVDZ-JKFIT
    Number of shells: 432
    Number of basis functions: 1288
    Number of Cartesian functions: 1492
    Spherical Harmonics?: true
    Max angular momentum: 3

  Minimum eigenvalue in the overlap matrix is 9.4898696882E-06.
  Reciprocal condition number of the overlap matrix is 7.4017872271E-07.
    Using symmetric orthogonalization.

  ==> Pre-Iterations <==

  SCF Guess: Superposition of Atomic Densities via on-the-fly atomic UHF (no occupation information).

   -------------------------
    Irrep   Nso     Nmo    
   -------------------------
     A        348     348 
   -------------------------
    Total     348     348
   -------------------------

  ==> Iterations <==

                           Total Energy        Delta E     RMS |[F,P]|

   @DF-RHF iter SAD:  -524.65046250965020   -5.24650e+02   0.00000e+00 
   @DF-RHF iter   1:  -525.07881409330560   -4.28352e-01   1.58372e-03 DIIS
   @DF-RHF iter   2:  -525.25757487633871   -1.78761e-01   5.80774e-04 DIIS
   @DF-RHF iter   3:  -525.27724437191830   -1.96695e-02   1.81371e-04 DIIS
   @DF-RHF iter   4:  -525.27969390442684   -2.44953e-03   5.34003e-05 DIIS
   @DF-RHF iter   5:  -525.27987310286198   -1.79198e-04   1.06854e-05 DIIS
   @DF-RHF iter   6:  -525.27988620351675   -1.31007e-05   3.46861e-06 DIIS
   @DF-RHF iter   7:  -525.27988810830254   -1.90479e-06   9.05301e-07 DIIS
   @DF-RHF iter   8:  -525.27988825608418   -1.47782e-07   1.40253e-07 DIIS
   @DF-RHF iter   9:  -525.27988826005731   -3.97313e-09   2.66442e-08 DIIS
   @DF-RHF iter  10:  -525.27988826019816   -1.40858e-10   4.68393e-09 DIIS
   @DF-RHF iter  11:  -525.27988826020226   -4.09273e-12   1.56632e-09 DIIS
   @DF-RHF iter  12:  -525.27988826020191    3.41061e-13   5.21794e-10 DIIS
   @DF-RHF iter  13:  -525.27988826020339   -1.47793e-12   1.01783e-10 DIIS
   @DF-RHF iter  14:  -525.27988826020317    2.27374e-13   2.66003e-11 DIIS
  Energy and wave function converged.


  ==> Post-Iterations <==

    Orbital Energies [Eh]
    ---------------------

    Doubly Occupied:                                                      

       1A    -15.598038     2A    -15.598038     3A    -15.598019  
       4A    -15.598019     5A    -11.274206     6A    -11.274206  
       7A    -11.274161     8A    -11.274161     9A    -11.272942  
      10A    -11.272942    11A    -11.272936    12A    -11.272936  
      13A     -1.313313    14A     -1.313313    15A     -1.224142  
      16A     -1.224142    17A     -1.076770    18A     -1.076770  
      19A     -0.922629    20A     -0.922629    21A     -0.919249  
      22A     -0.919249    23A     -0.760604    24A     -0.760604  
      25A     -0.738369    26A     -0.738369    27A     -0.706180  
      28A     -0.706180    29A     -0.647654    30A     -0.647654  
      31A     -0.580678    32A     -0.580678    33A     -0.574336  
      34A     -0.574336    35A     -0.497079    36A     -0.497079  
      37A     -0.434254    38A     -0.434254    39A     -0.415822  
      40A     -0.415822    41A     -0.359891    42A     -0.359891  

    Virtual:                                                              

      43A      0.034528    44A      0.034528    45A      0.040766  
      46A      0.040766    47A      0.048416    48A      0.048416  
      49A      0.058621    50A      0.058621    51A      0.067147  
      52A      0.067147    53A      0.099453    54A      0.099453  
      55A      0.100979    56A      0.100979    57A      0.114236  
      58A      0.114236    59A      0.114987    60A      0.114987  
      61A      0.123808    62A      0.123808    63A      0.125357  
      64A      0.125357    65A      0.128691    66A      0.128691  
      67A      0.132922    68A      0.132922    69A      0.158228  
      70A      0.158228    71A      0.161116    72A      0.161116  
      73A      0.161357    74A      0.161357    75A      0.163946  
      76A      0.163946    77A      0.175209    78A      0.175209  
      79A      0.186952    80A      0.186952    81A      0.203942  
      82A      0.203942    83A      0.212574    84A      0.212574  
      85A      0.250553    86A      0.250553    87A      0.267791  
      88A      0.267791    89A      0.278091    90A      0.278091  
      91A      0.287847    92A      0.287847    93A      0.293239  
      94A      0.293239    95A      0.295783    96A      0.295783  
      97A      0.314864    98A      0.314864    99A      0.320491  
     100A      0.320491   101A      0.355460   102A      0.355460  
     103A      0.357941   104A      0.357941   105A      0.364694  
     106A      0.364694   107A      0.382615   108A      0.382615  
     109A      0.398923   110A      0.398923   111A      0.409927  
     112A      0.409927   113A      0.425484   114A      0.425484  
     115A      0.433957   116A      0.433957   117A      0.437242  
     118A      0.437242   119A      0.452124   120A      0.452124  
     121A      0.471516   122A      0.471516   123A      0.492172  
     124A      0.492172   125A      0.504893   126A      0.504893  
     127A      0.514947   128A      0.514947   129A      0.524579  
     130A      0.524579   131A      0.528702   132A      0.528702  
     133A      0.554610   134A      0.554610   135A      0.570568  
     136A      0.570568   137A      0.587568   138A      0.587568  
     139A      0.591540   140A      0.591540   141A      0.593833  
     142A      0.593833   143A      0.608961   144A      0.608961  
     145A      0.643550   146A      0.643550   147A      0.644352  
     148A      0.644352   149A      0.685169   150A      0.685169  
     151A      0.687792   152A      0.687792   153A      0.689964  
     154A      0.689964   155A      0.690375   156A      0.690375  
     157A      0.694860   158A      0.694860   159A      0.703861  
     160A      0.703861   161A      0.746589   162A      0.746589  
     163A      0.754850   164A      0.754850   165A      0.766999  
     166A      0.766999   167A      0.781440   168A      0.781440  
     169A      0.799847   170A      0.799847   171A      0.802743  
     172A      0.802743   173A      0.819050   174A      0.819050  
     175A      0.831105   176A      0.831105   177A      0.847546  
     178A      0.847546   179A      0.880577   180A      0.880577  
     181A      0.886442   182A      0.886443   183A      0.894716  
     184A      0.894716   185A      0.929305   186A      0.929305  
     187A      0.939500   188A      0.939500   189A      0.949339  
     190A      0.949339   191A      0.996685   192A      0.996685  
     193A      0.998942   194A      0.998942   195A      1.013049  
     196A      1.013049   197A      1.033403   198A      1.033403  
     199A      1.051227   200A      1.051227   201A      1.089415  
     202A      1.089415   203A      1.100479   204A      1.100479  
     205A      1.122232   206A      1.122232   207A      1.124078  
     208A      1.124078   209A      1.134395   210A      1.134395  
     211A      1.158773   212A      1.158773   213A      1.173598  
     214A      1.173598   215A      1.235450   216A      1.235450  
     217A      1.238837   218A      1.238837   219A      1.309707  
     220A      1.309707   221A      1.331181   222A      1.331181  
     223A      1.414315   224A      1.414315   225A      1.451560  
     226A      1.451560   227A      1.486171   228A      1.486171  
     229A      1.488108   230A      1.488108   231A      1.499243  
     232A      1.499244   233A      1.502879   234A      1.502879  
     235A      1.518284   236A      1.518284   237A      1.572719  
     238A      1.572719   239A      1.574225   240A      1.574225  
     241A      1.587869   242A      1.587869   243A      1.636015  
     244A      1.636015   245A      1.640537   246A      1.640537  
     247A      1.648252   248A      1.648252   249A      1.676585  
     250A      1.676585   251A      1.717025   252A      1.717025  
     253A      1.746631   254A      1.746631   255A      1.755137  
     256A      1.755137   257A      1.783796   258A      1.783796  
     259A      1.815760   260A      1.815760   261A      1.893356  
     262A      1.893356   263A      1.916170   264A      1.916170  
     265A      1.964862   266A      1.964862   267A      1.987708  
     268A      1.987708   269A      2.031235   270A      2.031235  
     271A      2.091581   272A      2.091581   273A      2.101061  
     274A      2.101061   275A      2.142986   276A      2.142986  
     277A      2.163389   278A      2.163389   279A      2.190521  
     280A      2.190521   281A      2.193334   282A      2.193334  
     283A      2.200413   284A      2.200413   285A      2.202443  
     286A      2.202443   287A      2.227659   288A      2.227659  
     289A      2.312794   290A      2.312794   291A      2.355262  
     292A      2.355262   293A      2.430990   294A      2.430990  
     295A      2.439010   296A      2.439010   297A      2.519412  
     298A      2.519412   299A      2.522428   300A      2.522428  
     301A      2.584800   302A      2.584800   303A      2.606300  
     304A      2.606300   305A      2.665257   306A      2.665257  
     307A      2.675443   308A      2.675443   309A      2.686429  
     310A      2.686429   311A      2.714018   312A      2.714018  
     313A      2.718624   314A      2.718624   315A      2.844048  
     316A      2.844048   317A      2.865794   318A      2.865794  
     319A      2.939229   320A      2.939229   321A      3.001888  
     322A      3.001888   323A      3.017905   324A      3.017905  
     325A      3.032220   326A      3.032220   327A      3.094170  
     328A      3.094170   329A      3.220349   330A      3.220349  
     331A      3.256012   332A      3.256012   333A      3.284913  
     334A      3.284913   335A      3.366173   336A      3.366173  
     337A      3.413400   338A      3.413400   339A      3.514953  
     340A      3.514953   341A      3.590688   342A      3.590688  
     343A      3.627802   344A      3.627802   345A      3.977269  
     346A      3.977269   347A      4.253518   348A      4.253518  

    Final Occupation by Irrep:
              A 
    DOCC [    42 ]

  @DF-RHF Final Energy:  -525.27988826020317

   => Energetics <=

    Nuclear Repulsion Energy =            472.5643504356444851
    One-Electron Energy =               -1645.8433904070782319
    Two-Electron Energy =                 647.9991517112306383
    Total Energy =                       -525.2798882602031654

Computation Completed


Properties will be evaluated at   0.000000,   0.000000,   0.000000 [a0]

Properties computed using the SCF density matrix

  Nuclear Dipole Moment: [e a0]
     X:   110.1629      Y:  -381.9742      Z: -1445.6460

  Electronic Dipole Moment: [e a0]
     X:  -110.1629      Y:   381.9742      Z:  1445.6460

  Dipole Moment: [e a0]
     X:     0.0000      Y:     0.0000      Z:     0.0000     Total:     0.0000

  Dipole Moment: [D]
     X:     0.0000      Y:     0.0000      Z:     0.0000     Total:     0.0000


*** tstop() called on atl1-1-01-015-6-r.pace.gatech.edu at Mon Nov 29 16:10:52 2021
Module time:
	user time   =      21.23 seconds =       0.35 minutes
	system time =       0.92 seconds =       0.02 minutes
	total time  =         12 seconds =       0.20 minutes
Total time:
	user time   =      21.23 seconds =       0.35 minutes
	system time =       0.92 seconds =       0.02 minutes
	total time  =         12 seconds =       0.20 minutes

  //>>>>>>>>>>>>>>>>>>>>>>>>>>>>>>>>>>>//
  //            Monomer A HF           //
  //<<<<<<<<<<<<<<<<<<<<<<<<<<<<<<<<<<<//


*** tstart() called on atl1-1-01-015-6-r.pace.gatech.edu
*** at Mon Nov 29 16:10:52 2021

   => Loading Basis Set <=

    Name: AUG-CC-PVDZ
    Role: ORBITAL
    Keyword: BASIS
    atoms 1-2, 11-12  entry N          line   218 file /storage/home/hhive1/csargent30/data/miniconda3/envs/psi4/share/psi4/basis/aug-cc-pvdz.gbs 
    atoms 3-6, 13-16  entry H          line    40 file /storage/home/hhive1/csargent30/data/miniconda3/envs/psi4/share/psi4/basis/aug-cc-pvdz.gbs 
    atoms 7-10, 17-20 entry C          line   182 file /storage/home/hhive1/csargent30/data/miniconda3/envs/psi4/share/psi4/basis/aug-cc-pvdz.gbs 


         ---------------------------------------------------------
                                   SCF
               by Justin Turney, Rob Parrish, Andy Simmonett
                          and Daniel G. A. Smith
                              RHF Reference
                        2 Threads,   6675 MiB Core
         ---------------------------------------------------------

  ==> Geometry <==

    Molecular point group: c1
    Full point group: C1

    Geometry (in Bohr), charge = 0, multiplicity = 1:

       Center              X                  Y                   Z               Mass       
    ------------   -----------------  -----------------  -----------------  -----------------
         N           -1.330847580000     0.980326580000     0.426270370000    14.003074004430
         N            3.953773330000     0.980326580000     0.426270370000    14.003074004430
         H            3.567136740000     4.352185690000    -0.942309730000     1.007825032230
         H           -0.944210980000     4.352185690000    -0.942309730000     1.007825032230
         H           -0.944210980000    -2.391532530000     1.794850470000     1.007825032230
         H            3.567136740000    -2.391532530000     1.794850470000     1.007825032230
         C            2.622925760000     2.940979740000    -0.426270370000    12.000000000000
         C            0.000000000000     2.940979740000    -0.426270370000    12.000000000000
         C            0.000000000000    -0.980326580000     1.278811120000    12.000000000000
         C            2.622925760000    -0.980326580000     1.278811120000    12.000000000000
      Gh(N)          -1.330847580000   -10.074949200000   -34.846412620000    14.003074004430
      Gh(N)           3.953773330000   -10.074949200000   -34.846412620000    14.003074004430
      Gh(H)           3.567136740000    -6.703090090000   -36.214992720000     1.007825032230
      Gh(H)          -0.944210980000    -6.703090090000   -36.214992720000     1.007825032230
      Gh(H)          -0.944210980000   -13.446808310000   -33.477832520000     1.007825032230
      Gh(H)           3.567136740000   -13.446808310000   -33.477832520000     1.007825032230
      Gh(C)           2.622925760000    -8.114296040000   -35.698953370000    12.000000000000
      Gh(C)           0.000000000000    -8.114296040000   -35.698953370000    12.000000000000
      Gh(C)           0.000000000000   -12.035602360000   -33.993871870000    12.000000000000
      Gh(C)           2.622925760000   -12.035602360000   -33.993871870000    12.000000000000

  Running in c1 symmetry.

  Rotational constants: A =      0.04524  B =      0.00057  C =      0.00057 [cm^-1]
  Rotational constants: A =   1356.37355  B =     17.01901  C =     16.98280 [MHz]
  Nuclear repulsion =  212.551731110485349

  Charge       = 0
  Multiplicity = 1
  Electrons    = 42
  Nalpha       = 21
  Nbeta        = 21

  ==> Algorithm <==

  SCF Algorithm Type is DF.
  DIIS enabled.
  MOM disabled.
  Fractional occupation disabled.
  Guess Type is SAD.
  Energy threshold   = 1.00e-10
  Density threshold  = 1.00e-10
  Integral threshold = 1.00e-12

  ==> Primary Basis <==

  Basis Set: AUG-CC-PVDZ
    Blend: AUG-CC-PVDZ
    Number of shells: 148
    Number of basis functions: 348
    Number of Cartesian functions: 372
    Spherical Harmonics?: true
    Max angular momentum: 2

   => Loading Basis Set <=

    Name: (AUG-CC-PVDZ AUX)
    Role: JKFIT
    Keyword: DF_BASIS_SCF
    atoms 1-2, 11-12  entry N          line   212 file /storage/home/hhive1/csargent30/data/miniconda3/envs/psi4/share/psi4/basis/aug-cc-pvdz-jkfit.gbs 
    atoms 3-6, 13-16  entry H          line    70 file /storage/home/hhive1/csargent30/data/miniconda3/envs/psi4/share/psi4/basis/aug-cc-pvdz-jkfit.gbs 
    atoms 7-10, 17-20 entry C          line   154 file /storage/home/hhive1/csargent30/data/miniconda3/envs/psi4/share/psi4/basis/aug-cc-pvdz-jkfit.gbs 

  ==> Integral Setup <==

  ==> DiskDFJK: Density-Fitted J/K Matrices <==

    J tasked:                  Yes
    K tasked:                  Yes
    wK tasked:                  No
    OpenMP threads:              2
    Integrals threads:           2
    Memory [MiB]:             5006
    Algorithm:                Core
    Integral Cache:           LOAD
    Schwarz Cutoff:          1E-12
    Fitting Condition:       1E-10

   => Auxiliary Basis Set <=

  Basis Set: (AUG-CC-PVDZ AUX)
    Blend: AUG-CC-PVDZ-JKFIT
    Number of shells: 432
    Number of basis functions: 1288
    Number of Cartesian functions: 1492
    Spherical Harmonics?: true
    Max angular momentum: 3

  Minimum eigenvalue in the overlap matrix is 9.4898696882E-06.
  Reciprocal condition number of the overlap matrix is 7.4017872271E-07.
    Using symmetric orthogonalization.

  ==> Pre-Iterations <==

  SCF Guess: Superposition of Atomic Densities via on-the-fly atomic UHF (no occupation information).

   -------------------------
    Irrep   Nso     Nmo    
   -------------------------
     A        348     348 
   -------------------------
    Total     348     348
   -------------------------

  ==> Iterations <==

                           Total Energy        Delta E     RMS |[F,P]|

   @DF-RHF iter SAD:  -262.32523125683463   -2.62325e+02   0.00000e+00 
   @DF-RHF iter   1:  -262.53940798117856   -2.14177e-01   1.11985e-03 DIIS
   @DF-RHF iter   2:  -262.62878837376746   -8.93804e-02   4.10664e-04 DIIS
   @DF-RHF iter   3:  -262.63862291835937   -9.83454e-03   1.28248e-04 DIIS
   @DF-RHF iter   4:  -262.63984767163481   -1.22475e-03   3.77599e-05 DIIS
   @DF-RHF iter   5:  -262.63993727209578   -8.96005e-05   7.55558e-06 DIIS
   @DF-RHF iter   6:  -262.63994382235592   -6.55026e-06   2.45264e-06 DIIS
   @DF-RHF iter   7:  -262.63994477472903   -9.52373e-07   6.40130e-07 DIIS
   @DF-RHF iter   8:  -262.63994484861712   -7.38881e-08   9.91693e-08 DIIS
   @DF-RHF iter   9:  -262.63994485060272   -1.98560e-09   1.88228e-08 DIIS
   @DF-RHF iter  10:  -262.63994485067343   -7.07132e-11   3.19151e-09 DIIS
   @DF-RHF iter  11:  -262.63994485067587   -2.44427e-12   5.22317e-10 DIIS
   @DF-RHF iter  12:  -262.63994485067582    5.68434e-14   9.54359e-11 DIIS
  Energy and wave function converged.


  ==> Post-Iterations <==

    Orbital Energies [Eh]
    ---------------------

    Doubly Occupied:                                                      

       1A    -15.598072     2A    -15.598053     3A    -11.274239  
       4A    -11.274194     5A    -11.272975     6A    -11.272969  
       7A     -1.313347     8A     -1.224176     9A     -1.076803  
      10A     -0.922662    11A     -0.919282    12A     -0.760637  
      13A     -0.738402    14A     -0.706214    15A     -0.647687  
      16A     -0.580711    17A     -0.574369    18A     -0.497113  
      19A     -0.434288    20A     -0.415855    21A     -0.359924  

    Virtual:                                                              

      22A      0.022392    23A      0.034497    24A      0.039461  
      25A      0.040739    26A      0.041139    27A      0.048384  
      28A      0.058591    29A      0.058805    30A      0.067113  
      31A      0.079642    32A      0.085002    33A      0.099419  
      34A      0.100948    35A      0.103949    36A      0.108474  
      37A      0.108812    38A      0.114201    39A      0.114951  
      40A      0.122456    41A      0.123776    42A      0.125322  
      43A      0.125542    44A      0.128661    45A      0.130905  
      46A      0.132889    47A      0.134104    48A      0.152060  
      49A      0.152986    50A      0.158199    51A      0.159303  
      52A      0.161084    53A      0.161326    54A      0.163914  
      55A      0.175179    56A      0.176699    57A      0.186918  
      58A      0.197760    59A      0.203861    60A      0.203908  
      61A      0.206622    62A      0.212538    63A      0.222338  
      64A      0.233570    65A      0.239396    66A      0.250517  
      67A      0.255180    68A      0.267756    69A      0.270735  
      70A      0.278057    71A      0.287812    72A      0.293207  
      73A      0.295748    74A      0.302278    75A      0.314832  
      76A      0.320457    77A      0.320595    78A      0.328114  
      79A      0.331259    80A      0.344077    81A      0.355428  
      82A      0.357908    83A      0.364661    84A      0.380455  
      85A      0.382582    86A      0.385593    87A      0.398891  
      88A      0.401229    89A      0.409895    90A      0.419227  
      91A      0.424906    92A      0.425453    93A      0.433925  
      94A      0.437212    95A      0.441889    96A      0.452092  
      97A      0.460613    98A      0.461060    99A      0.471483  
     100A      0.476042   101A      0.478775   102A      0.492140  
     103A      0.504862   104A      0.507777   105A      0.514914  
     106A      0.523722   107A      0.524547   108A      0.528668  
     109A      0.535688   110A      0.554577   111A      0.557801  
     112A      0.561470   113A      0.564451   114A      0.570535  
     115A      0.581860   116A      0.587535   117A      0.591506  
     118A      0.593799   119A      0.595965   120A      0.608929  
     121A      0.615098   122A      0.620117   123A      0.636322  
     124A      0.643517   125A      0.644321   126A      0.649311  
     127A      0.651447   128A      0.679369   129A      0.685136  
     130A      0.685271   131A      0.687758   132A      0.689932  
     133A      0.690342   134A      0.694828   135A      0.703829  
     136A      0.719844   137A      0.728349   138A      0.746558  
     139A      0.746745   140A      0.754817   141A      0.766965  
     142A      0.775638   143A      0.781406   144A      0.793588  
     145A      0.799815   146A      0.802710   147A      0.811050  
     148A      0.811934   149A      0.819016   150A      0.824708  
     151A      0.831071   152A      0.847513   153A      0.848019  
     154A      0.849141   155A      0.868562   156A      0.880544  
     157A      0.886410   158A      0.888105   159A      0.894682  
     160A      0.906061   161A      0.929068   162A      0.929272  
     163A      0.939466   164A      0.947648   165A      0.949307  
     166A      0.970737   167A      0.976892   168A      0.986593  
     169A      0.996652   170A      0.998908   171A      1.013015  
     172A      1.032375   173A      1.033370   174A      1.046886  
     175A      1.051194   176A      1.076220   177A      1.089381  
     178A      1.090235   179A      1.100445   180A      1.122199  
     181A      1.124044   182A      1.130618   183A      1.134362  
     184A      1.140222   185A      1.158740   186A      1.168546  
     187A      1.170633   188A      1.173565   189A      1.192164  
     190A      1.193197   191A      1.200430   192A      1.222273  
     193A      1.235416   194A      1.238804   195A      1.250985  
     196A      1.307514   197A      1.309673   198A      1.318219  
     199A      1.326370   200A      1.329568   201A      1.331148  
     202A      1.346765   203A      1.389170   204A      1.414282  
     205A      1.448346   206A      1.451526   207A      1.455416  
     208A      1.479090   209A      1.486137   210A      1.487162  
     211A      1.488075   212A      1.499211   213A      1.502846  
     214A      1.518252   215A      1.572686   216A      1.574192  
     217A      1.587836   218A      1.635982   219A      1.640505  
     220A      1.648219   221A      1.659198   222A      1.676552  
     223A      1.698024   224A      1.716991   225A      1.746597  
     226A      1.755104   227A      1.783762   228A      1.815727  
     229A      1.893323   230A      1.916137   231A      1.964829  
     232A      1.987674   233A      2.031202   234A      2.070185  
     235A      2.091548   236A      2.101028   237A      2.102723  
     238A      2.119402   239A      2.142953   240A      2.156634  
     241A      2.159148   242A      2.163355   243A      2.190488  
     244A      2.193301   245A      2.194819   246A      2.200380  
     247A      2.202410   248A      2.227626   249A      2.234734  
     250A      2.241162   251A      2.249618   252A      2.309973  
     253A      2.312761   254A      2.319506   255A      2.355229  
     256A      2.384764   257A      2.419168   258A      2.430957  
     259A      2.435371   260A      2.438124   261A      2.438977  
     262A      2.472635   263A      2.486683   264A      2.498279  
     265A      2.519379   266A      2.522395   267A      2.525026  
     268A      2.545954   269A      2.568286   270A      2.584766  
     271A      2.592331   272A      2.606266   273A      2.625931  
     274A      2.665224   275A      2.675409   276A      2.686395  
     277A      2.713985   278A      2.716856   279A      2.718591  
     280A      2.726611   281A      2.767894   282A      2.844014  
     283A      2.865761   284A      2.903995   285A      2.939196  
     286A      2.947186   287A      2.955710   288A      2.973301  
     289A      3.001855   290A      3.017872   291A      3.032186  
     292A      3.058290   293A      3.065188   294A      3.094137  
     295A      3.113827   296A      3.220316   297A      3.245688  
     298A      3.255980   299A      3.284880   300A      3.289641  
     301A      3.321921   302A      3.337702   303A      3.340446  
     304A      3.348619   305A      3.351342   306A      3.366140  
     307A      3.412590   308A      3.413367   309A      3.470745  
     310A      3.501946   311A      3.514920   312A      3.521355  
     313A      3.590655   314A      3.604429   315A      3.605636  
     316A      3.627769   317A      3.700477   318A      3.818916  
     319A      3.830680   320A      3.940961   321A      3.969087  
     322A      3.977236   323A      4.011394   324A      4.194750  
     325A      4.242242   326A      4.253485   327A      4.441980  
     328A      4.546821   329A      4.579269   330A      4.867632  
     331A      4.976135   332A      5.057844   333A      5.261703  
     334A      5.316531   335A      5.630189   336A      5.691316  
     337A      5.827140   338A      5.952624   339A      6.283820  
     340A      6.306881   341A      6.453757   342A      6.631192  
     343A     18.125709   344A     18.207971   345A     19.017566  
     346A     19.342991   347A     25.287054   348A     25.374774  

    Final Occupation by Irrep:
              A 
    DOCC [    21 ]

  @DF-RHF Final Energy:  -262.63994485067582

   => Energetics <=

    Nuclear Repulsion Energy =            212.5517311104853491
    One-Electron Energy =                -775.4594096388707385
    Two-Electron Energy =                 300.2677336777096002
    Total Energy =                       -262.6399448506758176

Computation Completed


Properties will be evaluated at   0.000000,   0.000000,   0.000000 [a0]

Properties computed using the SCF density matrix

  Nuclear Dipole Moment: [e a0]
     X:    55.0814      Y:    41.1737      Z:    17.9034

  Electronic Dipole Moment: [e a0]
     X:   -55.0814      Y:   -41.1737      Z:   -17.9034

  Dipole Moment: [e a0]
     X:     0.0000      Y:     0.0000      Z:     0.0000     Total:     0.0000

  Dipole Moment: [D]
     X:     0.0000      Y:     0.0000      Z:     0.0000     Total:     0.0000


*** tstop() called on atl1-1-01-015-6-r.pace.gatech.edu at Mon Nov 29 16:10:59 2021
Module time:
	user time   =      12.45 seconds =       0.21 minutes
	system time =       0.45 seconds =       0.01 minutes
	total time  =          7 seconds =       0.12 minutes
Total time:
	user time   =      33.70 seconds =       0.56 minutes
	system time =       1.37 seconds =       0.02 minutes
	total time  =         19 seconds =       0.32 minutes

  //>>>>>>>>>>>>>>>>>>>>>>>>>>>>>>>>>>>//
  //            Monomer B HF           //
  //<<<<<<<<<<<<<<<<<<<<<<<<<<<<<<<<<<<//


*** tstart() called on atl1-1-01-015-6-r.pace.gatech.edu
*** at Mon Nov 29 16:10:59 2021

   => Loading Basis Set <=

    Name: AUG-CC-PVDZ
    Role: ORBITAL
    Keyword: BASIS
    atoms 1-2, 11-12  entry N          line   218 file /storage/home/hhive1/csargent30/data/miniconda3/envs/psi4/share/psi4/basis/aug-cc-pvdz.gbs 
    atoms 3-6, 13-16  entry H          line    40 file /storage/home/hhive1/csargent30/data/miniconda3/envs/psi4/share/psi4/basis/aug-cc-pvdz.gbs 
    atoms 7-10, 17-20 entry C          line   182 file /storage/home/hhive1/csargent30/data/miniconda3/envs/psi4/share/psi4/basis/aug-cc-pvdz.gbs 


         ---------------------------------------------------------
                                   SCF
               by Justin Turney, Rob Parrish, Andy Simmonett
                          and Daniel G. A. Smith
                              RHF Reference
                        2 Threads,   6675 MiB Core
         ---------------------------------------------------------

  ==> Geometry <==

    Molecular point group: c1
    Full point group: C1

    Geometry (in Bohr), charge = 0, multiplicity = 1:

       Center              X                  Y                   Z               Mass       
    ------------   -----------------  -----------------  -----------------  -----------------
      Gh(N)          -1.330847580000     0.980326580000     0.426270370000    14.003074004430
      Gh(N)           3.953773330000     0.980326580000     0.426270370000    14.003074004430
      Gh(H)           3.567136740000     4.352185690000    -0.942309730000     1.007825032230
      Gh(H)          -0.944210980000     4.352185690000    -0.942309730000     1.007825032230
      Gh(H)          -0.944210980000    -2.391532530000     1.794850470000     1.007825032230
      Gh(H)           3.567136740000    -2.391532530000     1.794850470000     1.007825032230
      Gh(C)           2.622925760000     2.940979740000    -0.426270370000    12.000000000000
      Gh(C)           0.000000000000     2.940979740000    -0.426270370000    12.000000000000
      Gh(C)           0.000000000000    -0.980326580000     1.278811120000    12.000000000000
      Gh(C)           2.622925760000    -0.980326580000     1.278811120000    12.000000000000
         N           -1.330847580000   -10.074949200000   -34.846412620000    14.003074004430
         N            3.953773330000   -10.074949200000   -34.846412620000    14.003074004430
         H            3.567136740000    -6.703090090000   -36.214992720000     1.007825032230
         H           -0.944210980000    -6.703090090000   -36.214992720000     1.007825032230
         H           -0.944210980000   -13.446808310000   -33.477832520000     1.007825032230
         H            3.567136740000   -13.446808310000   -33.477832520000     1.007825032230
         C            2.622925760000    -8.114296040000   -35.698953370000    12.000000000000
         C            0.000000000000    -8.114296040000   -35.698953370000    12.000000000000
         C            0.000000000000   -12.035602360000   -33.993871870000    12.000000000000
         C            2.622925760000   -12.035602360000   -33.993871870000    12.000000000000

  Running in c1 symmetry.

  Rotational constants: A =      0.04524  B =      0.00057  C =      0.00057 [cm^-1]
  Rotational constants: A =   1356.37355  B =     17.01901  C =     16.98280 [MHz]
  Nuclear repulsion =  212.551731042300560

  Charge       = 0
  Multiplicity = 1
  Electrons    = 42
  Nalpha       = 21
  Nbeta        = 21

  ==> Algorithm <==

  SCF Algorithm Type is DF.
  DIIS enabled.
  MOM disabled.
  Fractional occupation disabled.
  Guess Type is SAD.
  Energy threshold   = 1.00e-10
  Density threshold  = 1.00e-10
  Integral threshold = 1.00e-12

  ==> Primary Basis <==

  Basis Set: AUG-CC-PVDZ
    Blend: AUG-CC-PVDZ
    Number of shells: 148
    Number of basis functions: 348
    Number of Cartesian functions: 372
    Spherical Harmonics?: true
    Max angular momentum: 2

   => Loading Basis Set <=

    Name: (AUG-CC-PVDZ AUX)
    Role: JKFIT
    Keyword: DF_BASIS_SCF
    atoms 1-2, 11-12  entry N          line   212 file /storage/home/hhive1/csargent30/data/miniconda3/envs/psi4/share/psi4/basis/aug-cc-pvdz-jkfit.gbs 
    atoms 3-6, 13-16  entry H          line    70 file /storage/home/hhive1/csargent30/data/miniconda3/envs/psi4/share/psi4/basis/aug-cc-pvdz-jkfit.gbs 
    atoms 7-10, 17-20 entry C          line   154 file /storage/home/hhive1/csargent30/data/miniconda3/envs/psi4/share/psi4/basis/aug-cc-pvdz-jkfit.gbs 

  ==> Integral Setup <==

  ==> DiskDFJK: Density-Fitted J/K Matrices <==

    J tasked:                  Yes
    K tasked:                  Yes
    wK tasked:                  No
    OpenMP threads:              2
    Integrals threads:           2
    Memory [MiB]:             5006
    Algorithm:                Core
    Integral Cache:           LOAD
    Schwarz Cutoff:          1E-12
    Fitting Condition:       1E-10

   => Auxiliary Basis Set <=

  Basis Set: (AUG-CC-PVDZ AUX)
    Blend: AUG-CC-PVDZ-JKFIT
    Number of shells: 432
    Number of basis functions: 1288
    Number of Cartesian functions: 1492
    Spherical Harmonics?: true
    Max angular momentum: 3

  Minimum eigenvalue in the overlap matrix is 9.4898696882E-06.
  Reciprocal condition number of the overlap matrix is 7.4017872271E-07.
    Using symmetric orthogonalization.

  ==> Pre-Iterations <==

  SCF Guess: Superposition of Atomic Densities via on-the-fly atomic UHF (no occupation information).

   -------------------------
    Irrep   Nso     Nmo    
   -------------------------
     A        348     348 
   -------------------------
    Total     348     348
   -------------------------

  ==> Iterations <==

                           Total Energy        Delta E     RMS |[F,P]|

   @DF-RHF iter SAD:  -262.32523125181712   -2.62325e+02   0.00000e+00 
   @DF-RHF iter   1:  -262.53940798229388   -2.14177e-01   1.11985e-03 DIIS
   @DF-RHF iter   2:  -262.62878837476990   -8.93804e-02   4.10664e-04 DIIS
   @DF-RHF iter   3:  -262.63862291931508   -9.83454e-03   1.28248e-04 DIIS
   @DF-RHF iter   4:  -262.63984767258955   -1.22475e-03   3.77599e-05 DIIS
   @DF-RHF iter   5:  -262.63993727305183   -8.96005e-05   7.55558e-06 DIIS
   @DF-RHF iter   6:  -262.63994382331134   -6.55026e-06   2.45264e-06 DIIS
   @DF-RHF iter   7:  -262.63994477568463   -9.52373e-07   6.40130e-07 DIIS
   @DF-RHF iter   8:  -262.63994484957311   -7.38885e-08   9.91693e-08 DIIS
   @DF-RHF iter   9:  -262.63994485155854   -1.98543e-09   1.88228e-08 DIIS
   @DF-RHF iter  10:  -262.63994485162937   -7.08269e-11   3.19151e-09 DIIS
   @DF-RHF iter  11:  -262.63994485163164   -2.27374e-12   5.22318e-10 DIIS
   @DF-RHF iter  12:  -262.63994485163198   -3.41061e-13   9.54355e-11 DIIS
  Energy and wave function converged.


  ==> Post-Iterations <==

    Orbital Energies [Eh]
    ---------------------

    Doubly Occupied:                                                      

       1A    -15.598072     2A    -15.598053     3A    -11.274239  
       4A    -11.274194     5A    -11.272975     6A    -11.272969  
       7A     -1.313347     8A     -1.224176     9A     -1.076803  
      10A     -0.922662    11A     -0.919282    12A     -0.760637  
      13A     -0.738402    14A     -0.706214    15A     -0.647687  
      16A     -0.580711    17A     -0.574369    18A     -0.497113  
      19A     -0.434288    20A     -0.415855    21A     -0.359924  

    Virtual:                                                              

      22A      0.022392    23A      0.034497    24A      0.039461  
      25A      0.040739    26A      0.041139    27A      0.048384  
      28A      0.058591    29A      0.058805    30A      0.067113  
      31A      0.079642    32A      0.085002    33A      0.099419  
      34A      0.100948    35A      0.103949    36A      0.108474  
      37A      0.108812    38A      0.114201    39A      0.114951  
      40A      0.122456    41A      0.123776    42A      0.125322  
      43A      0.125542    44A      0.128661    45A      0.130905  
      46A      0.132889    47A      0.134104    48A      0.152060  
      49A      0.152986    50A      0.158199    51A      0.159303  
      52A      0.161084    53A      0.161326    54A      0.163914  
      55A      0.175179    56A      0.176699    57A      0.186918  
      58A      0.197760    59A      0.203861    60A      0.203908  
      61A      0.206622    62A      0.212538    63A      0.222338  
      64A      0.233570    65A      0.239396    66A      0.250517  
      67A      0.255180    68A      0.267756    69A      0.270735  
      70A      0.278057    71A      0.287812    72A      0.293207  
      73A      0.295748    74A      0.302278    75A      0.314832  
      76A      0.320457    77A      0.320595    78A      0.328114  
      79A      0.331259    80A      0.344077    81A      0.355428  
      82A      0.357908    83A      0.364661    84A      0.380455  
      85A      0.382582    86A      0.385593    87A      0.398891  
      88A      0.401229    89A      0.409895    90A      0.419227  
      91A      0.424906    92A      0.425453    93A      0.433925  
      94A      0.437212    95A      0.441889    96A      0.452092  
      97A      0.460613    98A      0.461060    99A      0.471483  
     100A      0.476042   101A      0.478775   102A      0.492140  
     103A      0.504862   104A      0.507777   105A      0.514914  
     106A      0.523722   107A      0.524547   108A      0.528668  
     109A      0.535688   110A      0.554577   111A      0.557801  
     112A      0.561470   113A      0.564451   114A      0.570535  
     115A      0.581860   116A      0.587535   117A      0.591506  
     118A      0.593799   119A      0.595965   120A      0.608929  
     121A      0.615098   122A      0.620117   123A      0.636322  
     124A      0.643517   125A      0.644321   126A      0.649311  
     127A      0.651447   128A      0.679369   129A      0.685136  
     130A      0.685271   131A      0.687758   132A      0.689932  
     133A      0.690342   134A      0.694828   135A      0.703829  
     136A      0.719844   137A      0.728349   138A      0.746558  
     139A      0.746745   140A      0.754817   141A      0.766965  
     142A      0.775638   143A      0.781406   144A      0.793588  
     145A      0.799815   146A      0.802710   147A      0.811050  
     148A      0.811934   149A      0.819016   150A      0.824708  
     151A      0.831071   152A      0.847513   153A      0.848019  
     154A      0.849141   155A      0.868562   156A      0.880544  
     157A      0.886410   158A      0.888105   159A      0.894682  
     160A      0.906061   161A      0.929068   162A      0.929272  
     163A      0.939466   164A      0.947648   165A      0.949307  
     166A      0.970737   167A      0.976892   168A      0.986593  
     169A      0.996652   170A      0.998908   171A      1.013015  
     172A      1.032375   173A      1.033370   174A      1.046886  
     175A      1.051194   176A      1.076220   177A      1.089381  
     178A      1.090235   179A      1.100445   180A      1.122199  
     181A      1.124044   182A      1.130618   183A      1.134362  
     184A      1.140222   185A      1.158740   186A      1.168546  
     187A      1.170633   188A      1.173565   189A      1.192164  
     190A      1.193197   191A      1.200430   192A      1.222273  
     193A      1.235416   194A      1.238804   195A      1.250985  
     196A      1.307514   197A      1.309674   198A      1.318219  
     199A      1.326370   200A      1.329568   201A      1.331148  
     202A      1.346765   203A      1.389170   204A      1.414282  
     205A      1.448346   206A      1.451526   207A      1.455416  
     208A      1.479090   209A      1.486137   210A      1.487162  
     211A      1.488075   212A      1.499211   213A      1.502846  
     214A      1.518252   215A      1.572686   216A      1.574192  
     217A      1.587836   218A      1.635982   219A      1.640505  
     220A      1.648219   221A      1.659198   222A      1.676552  
     223A      1.698024   224A      1.716991   225A      1.746597  
     226A      1.755104   227A      1.783762   228A      1.815727  
     229A      1.893323   230A      1.916137   231A      1.964829  
     232A      1.987674   233A      2.031202   234A      2.070185  
     235A      2.091548   236A      2.101028   237A      2.102723  
     238A      2.119402   239A      2.142953   240A      2.156634  
     241A      2.159148   242A      2.163355   243A      2.190488  
     244A      2.193301   245A      2.194819   246A      2.200380  
     247A      2.202410   248A      2.227626   249A      2.234734  
     250A      2.241162   251A      2.249618   252A      2.309973  
     253A      2.312761   254A      2.319506   255A      2.355229  
     256A      2.384764   257A      2.419168   258A      2.430957  
     259A      2.435371   260A      2.438124   261A      2.438977  
     262A      2.472635   263A      2.486683   264A      2.498279  
     265A      2.519379   266A      2.522395   267A      2.525026  
     268A      2.545954   269A      2.568286   270A      2.584766  
     271A      2.592331   272A      2.606266   273A      2.625931  
     274A      2.665224   275A      2.675409   276A      2.686395  
     277A      2.713985   278A      2.716856   279A      2.718591  
     280A      2.726611   281A      2.767894   282A      2.844014  
     283A      2.865761   284A      2.903995   285A      2.939196  
     286A      2.947186   287A      2.955710   288A      2.973301  
     289A      3.001855   290A      3.017872   291A      3.032186  
     292A      3.058290   293A      3.065188   294A      3.094137  
     295A      3.113827   296A      3.220316   297A      3.245688  
     298A      3.255980   299A      3.284880   300A      3.289641  
     301A      3.321921   302A      3.337702   303A      3.340446  
     304A      3.348619   305A      3.351342   306A      3.366140  
     307A      3.412590   308A      3.413367   309A      3.470745  
     310A      3.501946   311A      3.514920   312A      3.521355  
     313A      3.590655   314A      3.604429   315A      3.605636  
     316A      3.627769   317A      3.700477   318A      3.818916  
     319A      3.830680   320A      3.940961   321A      3.969087  
     322A      3.977236   323A      4.011394   324A      4.194750  
     325A      4.242242   326A      4.253485   327A      4.441980  
     328A      4.546821   329A      4.579269   330A      4.867632  
     331A      4.976135   332A      5.057844   333A      5.261703  
     334A      5.316531   335A      5.630189   336A      5.691316  
     337A      5.827140   338A      5.952624   339A      6.283820  
     340A      6.306881   341A      6.453757   342A      6.631192  
     343A     18.125709   344A     18.207971   345A     19.017566  
     346A     19.342991   347A     25.287054   348A     25.374774  

    Final Occupation by Irrep:
              A 
    DOCC [    21 ]

  @DF-RHF Final Energy:  -262.63994485163198

   => Energetics <=

    Nuclear Repulsion Energy =            212.5517310423005597
    One-Electron Energy =                -775.4594095015762605
    Two-Electron Energy =                 300.2677336076437768
    Total Energy =                       -262.6399448516319808

Computation Completed


Properties will be evaluated at   0.000000,   0.000000,   0.000000 [a0]

Properties computed using the SCF density matrix

  Nuclear Dipole Moment: [e a0]
     X:    55.0814      Y:  -423.1479      Z: -1463.5493

  Electronic Dipole Moment: [e a0]
     X:   -55.0814      Y:   423.1479      Z:  1463.5493

  Dipole Moment: [e a0]
     X:     0.0000      Y:    -0.0000      Z:    -0.0000     Total:     0.0000

  Dipole Moment: [D]
     X:     0.0000      Y:    -0.0000      Z:    -0.0000     Total:     0.0000


*** tstop() called on atl1-1-01-015-6-r.pace.gatech.edu at Mon Nov 29 16:11:06 2021
Module time:
	user time   =      12.47 seconds =       0.21 minutes
	system time =       0.44 seconds =       0.01 minutes
	total time  =          7 seconds =       0.12 minutes
Total time:
	user time   =      46.18 seconds =       0.77 minutes
	system time =       1.81 seconds =       0.03 minutes
	total time  =         26 seconds =       0.43 minutes
  Constructing Basis Sets for SAPT...

   => Loading Basis Set <=

    Name: (AUG-CC-PVDZ AUX)
    Role: RIFIT
    Keyword: DF_BASIS_SAPT
    atoms 1-2, 11-12  entry N          line   158 file /storage/home/hhive1/csargent30/data/miniconda3/envs/psi4/share/psi4/basis/aug-cc-pvdz-ri.gbs 
    atoms 3-6, 13-16  entry H          line    30 file /storage/home/hhive1/csargent30/data/miniconda3/envs/psi4/share/psi4/basis/aug-cc-pvdz-ri.gbs 
    atoms 7-10, 17-20 entry C          line   112 file /storage/home/hhive1/csargent30/data/miniconda3/envs/psi4/share/psi4/basis/aug-cc-pvdz-ri.gbs 


  //>>>>>>>>>>>>>>>>>>>>>>>>>>>>>>>>>>>//
  //               SAPT0               //
  //<<<<<<<<<<<<<<<<<<<<<<<<<<<<<<<<<<<//


*** tstart() called on atl1-1-01-015-6-r.pace.gatech.edu
*** at Mon Nov 29 16:11:06 2021

        SAPT0  
    Ed Hohenstein
     6 June 2009

      Orbital Information
  --------------------------
    NSO        =       348
    NMO        =       348
    NRI        =      1048
    NOCC A     =        21
    NOCC B     =        21
    FOCC A     =         6
    FOCC B     =         6
    NVIR A     =       327
    NVIR B     =       327

    Elst10,r            =     0.000001432543 [Eh]
    Exch10              =    -0.000000000000 [Eh]
    Exch10 (S^2)        =    -0.000000000000 [Eh]

    Iter     Energy [mEh]          dE [mEh]         Residual      Time [s]
       1      -0.00000018       0.000000181       0.004315863             0
       2      -0.00000016      -0.000000021       0.000916375             1
       3      -0.00000017       0.000000010       0.000489082             1
       4      -0.00000017       0.000000005       0.000116373             1
       5      -0.00000017      -0.000000001       0.000053507             2
       6      -0.00000017       0.000000000       0.000022934             2
       7      -0.00000017       0.000000000       0.000006639             2
       8      -0.00000017       0.000000000       0.000001578             3
       9      -0.00000017      -0.000000000       0.000000529             3

    CHF Iterations converged


    Iter     Energy [mEh]          dE [mEh]         Residual      Time [s]
       1      -0.00000018       0.000000181       0.004315863             1
       2      -0.00000016      -0.000000021       0.000916375             1
       3      -0.00000017       0.000000010       0.000489082             1
       4      -0.00000017       0.000000005       0.000116373             2
       5      -0.00000017      -0.000000001       0.000053507             2
       6      -0.00000017       0.000000000       0.000022934             2
       7      -0.00000017       0.000000000       0.000006639             3
       8      -0.00000017       0.000000000       0.000001578             3
       9      -0.00000017      -0.000000000       0.000000529             3

    CHF Iterations converged

    Ind20,r (A<-B)      =    -0.000000000174 [Eh]
    Ind20,r (B<-A)      =    -0.000000000174 [Eh]
    Ind20,r             =    -0.000000000347 [Eh]
    Exch-Ind20,r (A<-B) =     0.000000000000 [Eh]
    Exch-Ind20,r (B<-A) =     0.000000000000 [Eh]
    Exch-Ind20,r        =     0.000000000000 [Eh]
    Disp20              =    -0.000000519720 [Eh]
    Disp20 (SS)         =    -0.000000259860 [Eh]
    Disp20 (OS)         =    -0.000000259860 [Eh]
    Exch-Disp20         =     0.000000000000 [Eh]
    Exch-Disp20 (SS)    =     0.000000000000 [Eh]
    Exch-Disp20 (OS)    =     0.000000000000 [Eh]

    SAPT Results 
  --------------------------------------------------------------------------------------------------------
    Electrostatics                  0.00143254 [mEh]       0.00089893 [kcal/mol]       0.00376114 [kJ/mol]
      Elst10,r                      0.00143254 [mEh]       0.00089893 [kcal/mol]       0.00376114 [kJ/mol]

    Exchange                       -0.00000000 [mEh]      -0.00000000 [kcal/mol]      -0.00000000 [kJ/mol]
      Exch10                       -0.00000000 [mEh]      -0.00000000 [kcal/mol]      -0.00000000 [kJ/mol]
      Exch10(S^2)                  -0.00000000 [mEh]      -0.00000000 [kcal/mol]      -0.00000000 [kJ/mol]

    Induction                       0.00000956 [mEh]       0.00000600 [kcal/mol]       0.00002510 [kJ/mol]
      Ind20,r                      -0.00000035 [mEh]      -0.00000022 [kcal/mol]      -0.00000091 [kJ/mol]
      Exch-Ind20,r                  0.00000000 [mEh]       0.00000000 [kcal/mol]       0.00000000 [kJ/mol]
      delta HF,r (2)                0.00000991 [mEh]       0.00000622 [kcal/mol]       0.00002602 [kJ/mol]

    Dispersion                     -0.00051972 [mEh]      -0.00032613 [kcal/mol]      -0.00136452 [kJ/mol]
      Disp20                       -0.00051972 [mEh]      -0.00032613 [kcal/mol]      -0.00136452 [kJ/mol]
      Exch-Disp20                   0.00000000 [mEh]       0.00000000 [kcal/mol]       0.00000000 [kJ/mol]
      Disp20 (SS)                  -0.00025986 [mEh]      -0.00016306 [kcal/mol]      -0.00068226 [kJ/mol]
      Disp20 (OS)                  -0.00025986 [mEh]      -0.00016306 [kcal/mol]      -0.00068226 [kJ/mol]
      Exch-Disp20 (SS)              0.00000000 [mEh]       0.00000000 [kcal/mol]       0.00000000 [kJ/mol]
      Exch-Disp20 (OS)              0.00000000 [mEh]       0.00000000 [kcal/mol]       0.00000000 [kJ/mol]

  Total HF                          0.00144210 [mEh]       0.00090493 [kcal/mol]       0.00378625 [kJ/mol]
  Total SAPT0                       0.00092238 [mEh]       0.00057881 [kcal/mol]       0.00242172 [kJ/mol]

  Special recipe for scaled SAPT0 (see Manual):
    Electrostatics sSAPT0           0.00143254 [mEh]       0.00089893 [kcal/mol]       0.00376114 [kJ/mol]
    Exchange sSAPT0                -0.00000000 [mEh]      -0.00000000 [kcal/mol]      -0.00000000 [kJ/mol]
    Induction sSAPT0                0.00000956 [mEh]       0.00000600 [kcal/mol]       0.00002510 [kJ/mol]
    Dispersion sSAPT0              -0.00051972 [mEh]      -0.00032613 [kcal/mol]      -0.00136452 [kJ/mol]
  Total sSAPT0                      0.00092238 [mEh]       0.00057881 [kcal/mol]       0.00242172 [kJ/mol]
  --------------------------------------------------------------------------------------------------------

*** tstop() called on atl1-1-01-015-6-r.pace.gatech.edu at Mon Nov 29 16:11:29 2021
Module time:
	user time   =      34.96 seconds =       0.58 minutes
	system time =       7.60 seconds =       0.13 minutes
	total time  =         23 seconds =       0.38 minutes
Total time:
	user time   =      81.38 seconds =       1.36 minutes
	system time =       9.41 seconds =       0.16 minutes
	total time  =         49 seconds =       0.82 minutes


Warning! sapt0 does not have an associated derived wavefunction.The returned wavefunction is the dimer SCF wavefunction.


    Psi4 stopped on: Monday, 29 November 2021 04:11PM
    Psi4 wall time for execution: 0:00:49.14

*** Psi4 exiting successfully. Buy a developer a beer!
