
    -----------------------------------------------------------------------
          Psi4: An Open-Source Ab Initio Electronic Structure Package
                               Psi4 1.4.1 release

                         Git: Rev {HEAD} cd00f19 


    D. G. A. Smith, L. A. Burns, A. C. Simmonett, R. M. Parrish,
    M. C. Schieber, R. Galvelis, P. Kraus, H. Kruse, R. Di Remigio,
    A. Alenaizan, A. M. James, S. Lehtola, J. P. Misiewicz, M. Scheurer,
    R. A. Shaw, J. B. Schriber, Y. Xie, Z. L. Glick, D. A. Sirianni,
    J. S. O'Brien, J. M. Waldrop, A. Kumar, E. G. Hohenstein,
    B. P. Pritchard, B. R. Brooks, H. F. Schaefer III, A. Yu. Sokolov,
    K. Patkowski, A. E. DePrince III, U. Bozkaya, R. A. King,
    F. A. Evangelista, J. M. Turney, T. D. Crawford, C. D. Sherrill,
    J. Chem. Phys. 152(18) 184108 (2020). https://doi.org/10.1063/5.0006002

                            Additional Code Authors
    E. T. Seidl, C. L. Janssen, E. F. Valeev, M. L. Leininger,
    J. F. Gonthier, R. M. Richard, H. R. McAlexander, M. Saitow, X. Wang,
    P. Verma, and M. H. Lechner

             Previous Authors, Complete List of Code Contributors,
                       and Citations for Specific Modules
    https://github.com/psi4/psi4/blob/master/codemeta.json
    https://github.com/psi4/psi4/graphs/contributors
    http://psicode.org/psi4manual/master/introduction.html#citing-psifour

    -----------------------------------------------------------------------


    Psi4 started on: Monday, 29 November 2021 04:19PM

    Process ID: 434633
    Host:       atl1-1-01-013-14-l.pace.gatech.edu
    PSIDATADIR: /storage/home/hhive1/csargent30/data/miniconda3/envs/psi4/share/psi4
    Memory:     500.0 MiB
    Threads:    2
    
  ==> Input File <==

--------------------------------------------------------------------------
# PSI4 file produced by CrystaLattE

# Generated from:               pyrazine.xyz
# Psithon input for N-mer:      2mer-0+39
# Number of atoms per monomer:  [10, 10]
# Number of replicas:           8
# COM priority:                 9.985589906580e-05
# Minimum COM separations:      11.406 
# Separation priority:          2.918618490411e-04
# Minimum monomer separations:  7.978 
# Cutoff priority:              1.935989983710e-05
# Nuclear repulsion energy:     507.01862666595594

memory 7 GB

molecule Dimer_0_39 {
  N           -1.33084758       0.98032658       0.42627037 
  N            3.95377333       0.98032658       0.42627037 
  H            3.56713674       4.35218569      -0.94230973 
  H           -0.94421098       4.35218569      -0.94230973 
  H           -0.94421098      -2.39153253       1.79485047 
  H            3.56713674      -2.39153253       1.79485047 
  C            2.62292576       2.94097974      -0.42627037 
  C            0.00000000       2.94097974      -0.42627037 
  C            0.00000000      -0.98032658       1.27881112 
  C            2.62292576      -0.98032658       1.27881112 
--
  N          -10.14207358     -15.60258709     -10.15553452 
  N           -4.85745267     -15.60258709     -10.15553452 
  H           -9.75543698     -18.97444620     -11.52411462 
  H           -9.75543698     -12.23072798      -8.78695442 
  H           -5.24408927     -18.97444620     -11.52411462 
  H           -5.24408927     -12.23072798      -8.78695442 
  C           -8.81122601     -17.56324025     -11.00807527 
  C           -8.81122601     -13.64193393      -9.30299378 
  C           -6.18830025     -17.56324025     -11.00807527 
  C           -6.18830025     -13.64193393      -9.30299378 
units = au
no_com
no_reorient
}

set {
  e_convergence 10
  d_convergence 10
  scf_type df
  mp2_type df
  cc_type df
  freeze_core true
}

energy('sapt0/aug-cc-pvdz')

--------------------------------------------------------------------------

  Memory set to   6.519 GiB by Python driver.

Scratch directory: /tmp/

Scratch directory: /tmp/

  //>>>>>>>>>>>>>>>>>>>>>>>>>>>>>>>>>>>//
  //              Dimer HF             //
  //<<<<<<<<<<<<<<<<<<<<<<<<<<<<<<<<<<<//


*** tstart() called on atl1-1-01-013-14-l.pace.gatech.edu
*** at Mon Nov 29 16:19:03 2021

   => Loading Basis Set <=

    Name: AUG-CC-PVDZ
    Role: ORBITAL
    Keyword: BASIS
    atoms 1-2, 11-12  entry N          line   218 file /storage/home/hhive1/csargent30/data/miniconda3/envs/psi4/share/psi4/basis/aug-cc-pvdz.gbs 
    atoms 3-6, 13-16  entry H          line    40 file /storage/home/hhive1/csargent30/data/miniconda3/envs/psi4/share/psi4/basis/aug-cc-pvdz.gbs 
    atoms 7-10, 17-20 entry C          line   182 file /storage/home/hhive1/csargent30/data/miniconda3/envs/psi4/share/psi4/basis/aug-cc-pvdz.gbs 


         ---------------------------------------------------------
                                   SCF
               by Justin Turney, Rob Parrish, Andy Simmonett
                          and Daniel G. A. Smith
                              RHF Reference
                        2 Threads,   6675 MiB Core
         ---------------------------------------------------------

  ==> Geometry <==

    Molecular point group: c1
    Full point group: C1

    Geometry (in Bohr), charge = 0, multiplicity = 1:

       Center              X                  Y                   Z               Mass       
    ------------   -----------------  -----------------  -----------------  -----------------
         N           -1.330847580000     0.980326580000     0.426270370000    14.003074004430
         N            3.953773330000     0.980326580000     0.426270370000    14.003074004430
         H            3.567136740000     4.352185690000    -0.942309730000     1.007825032230
         H           -0.944210980000     4.352185690000    -0.942309730000     1.007825032230
         H           -0.944210980000    -2.391532530000     1.794850470000     1.007825032230
         H            3.567136740000    -2.391532530000     1.794850470000     1.007825032230
         C            2.622925760000     2.940979740000    -0.426270370000    12.000000000000
         C            0.000000000000     2.940979740000    -0.426270370000    12.000000000000
         C            0.000000000000    -0.980326580000     1.278811120000    12.000000000000
         C            2.622925760000    -0.980326580000     1.278811120000    12.000000000000
         N          -10.142073580000   -15.602587090000   -10.155534520000    14.003074004430
         N           -4.857452670000   -15.602587090000   -10.155534520000    14.003074004430
         H           -9.755436980000   -18.974446200000   -11.524114620000     1.007825032230
         H           -9.755436980000   -12.230727980000    -8.786954420000     1.007825032230
         H           -5.244089270000   -18.974446200000   -11.524114620000     1.007825032230
         H           -5.244089270000   -12.230727980000    -8.786954420000     1.007825032230
         C           -8.811226010000   -17.563240250000   -11.008075270000    12.000000000000
         C           -8.811226010000   -13.641933930000    -9.302993780000    12.000000000000
         C           -6.188300250000   -17.563240250000   -11.008075270000    12.000000000000
         C           -6.188300250000   -13.641933930000    -9.302993780000    12.000000000000

  Running in c1 symmetry.

  Rotational constants: A =      0.07397  B =      0.00182  C =      0.00180 [cm^-1]
  Rotational constants: A =   2217.42656  B =     54.70512  C =     53.99978 [MHz]
  Nuclear repulsion =  507.018626694866157

  Charge       = 0
  Multiplicity = 1
  Electrons    = 84
  Nalpha       = 42
  Nbeta        = 42

  ==> Algorithm <==

  SCF Algorithm Type is DF.
  DIIS enabled.
  MOM disabled.
  Fractional occupation disabled.
  Guess Type is SAD.
  Energy threshold   = 1.00e-10
  Density threshold  = 1.00e-10
  Integral threshold = 1.00e-12

  ==> Primary Basis <==

  Basis Set: AUG-CC-PVDZ
    Blend: AUG-CC-PVDZ
    Number of shells: 148
    Number of basis functions: 348
    Number of Cartesian functions: 372
    Spherical Harmonics?: true
    Max angular momentum: 2

   => Loading Basis Set <=

    Name: (AUG-CC-PVDZ AUX)
    Role: JKFIT
    Keyword: DF_BASIS_SCF
    atoms 1-2, 11-12  entry N          line   212 file /storage/home/hhive1/csargent30/data/miniconda3/envs/psi4/share/psi4/basis/aug-cc-pvdz-jkfit.gbs 
    atoms 3-6, 13-16  entry H          line    70 file /storage/home/hhive1/csargent30/data/miniconda3/envs/psi4/share/psi4/basis/aug-cc-pvdz-jkfit.gbs 
    atoms 7-10, 17-20 entry C          line   154 file /storage/home/hhive1/csargent30/data/miniconda3/envs/psi4/share/psi4/basis/aug-cc-pvdz-jkfit.gbs 

  ==> Integral Setup <==

  ==> DiskDFJK: Density-Fitted J/K Matrices <==

    J tasked:                  Yes
    K tasked:                  Yes
    wK tasked:                  No
    OpenMP threads:              2
    Integrals threads:           2
    Memory [MiB]:             5006
    Algorithm:                Core
    Integral Cache:           SAVE
    Schwarz Cutoff:          1E-12
    Fitting Condition:       1E-10

   => Auxiliary Basis Set <=

  Basis Set: (AUG-CC-PVDZ AUX)
    Blend: AUG-CC-PVDZ-JKFIT
    Number of shells: 432
    Number of basis functions: 1288
    Number of Cartesian functions: 1492
    Spherical Harmonics?: true
    Max angular momentum: 3

  Minimum eigenvalue in the overlap matrix is 9.2636958589E-06.
  Reciprocal condition number of the overlap matrix is 7.2239357098E-07.
    Using symmetric orthogonalization.

  ==> Pre-Iterations <==

  SCF Guess: Superposition of Atomic Densities via on-the-fly atomic UHF (no occupation information).

   -------------------------
    Irrep   Nso     Nmo    
   -------------------------
     A        348     348 
   -------------------------
    Total     348     348
   -------------------------

  ==> Iterations <==

                           Total Energy        Delta E     RMS |[F,P]|

   @DF-RHF iter SAD:  -524.65046326565357   -5.24650e+02   0.00000e+00 
   @DF-RHF iter   1:  -525.07885802261376   -4.28395e-01   1.58368e-03 DIIS
   @DF-RHF iter   2:  -525.25761912284759   -1.78761e-01   5.80675e-04 DIIS
   @DF-RHF iter   3:  -525.27728316734283   -1.96640e-02   1.81345e-04 DIIS
   @DF-RHF iter   4:  -525.27973226373365   -2.44910e-03   5.33954e-05 DIIS
   @DF-RHF iter   5:  -525.27991144019984   -1.79176e-04   1.06858e-05 DIIS
   @DF-RHF iter   6:  -525.27992454086109   -1.31007e-05   3.46872e-06 DIIS
   @DF-RHF iter   7:  -525.27992644484868   -1.90399e-06   9.09163e-07 DIIS
   @DF-RHF iter   8:  -525.27992659176368   -1.46915e-07   1.95258e-07 DIIS
   @DF-RHF iter   9:  -525.27992659620031   -4.43663e-09   1.05883e-07 DIIS
   @DF-RHF iter  10:  -525.27992659715630   -9.55993e-10   1.59852e-08 DIIS
   @DF-RHF iter  11:  -525.27992659720439   -4.80895e-11   2.83624e-09 DIIS
   @DF-RHF iter  12:  -525.27992659720599   -1.59162e-12   1.10973e-09 DIIS
   @DF-RHF iter  13:  -525.27992659720690   -9.09495e-13   3.81083e-10 DIIS
   @DF-RHF iter  14:  -525.27992659720587    1.02318e-12   1.20811e-10 DIIS
   @DF-RHF iter  15:  -525.27992659720667   -7.95808e-13   6.10844e-11 DIIS
  Energy and wave function converged.


  ==> Post-Iterations <==

    Orbital Energies [Eh]
    ---------------------

    Doubly Occupied:                                                      

       1A    -15.598749     2A    -15.598629     3A    -15.598105  
       4A    -15.598059     5A    -11.274859     6A    -11.274812  
       7A    -11.274253     8A    -11.274202     9A    -11.273597  
      10A    -11.273583    11A    -11.272996    12A    -11.272971  
      13A     -1.313973    14A     -1.313366    15A     -1.224803  
      16A     -1.224196    17A     -1.077422    18A     -1.076815  
      19A     -0.923283    20A     -0.922676    21A     -0.919899  
      22A     -0.919292    23A     -0.761259    24A     -0.760651  
      25A     -0.739014    26A     -0.738407    27A     -0.706836  
      28A     -0.706230    29A     -0.648304    30A     -0.647697  
      31A     -0.581327    32A     -0.580720    33A     -0.574997  
      34A     -0.574391    35A     -0.497743    36A     -0.497136  
      37A     -0.434921    38A     -0.434313    39A     -0.416482  
      40A     -0.415875    41A     -0.360544    42A     -0.359940  

    Virtual:                                                              

      43A      0.028571    44A      0.035955    45A      0.038663  
      46A      0.042514    47A      0.049267    48A      0.050961  
      49A      0.057839    50A      0.059268    51A      0.067284  
      52A      0.068967    53A      0.097867    54A      0.098888  
      55A      0.099954    56A      0.101657    57A      0.111926  
      58A      0.113552    59A      0.114535    60A      0.115246  
      61A      0.121124    62A      0.123174    63A      0.125155  
      64A      0.126682    65A      0.127645    66A      0.131011  
      67A      0.133577    68A      0.135315    69A      0.157549  
      70A      0.158378    71A      0.159559    72A      0.160832  
      73A      0.162272    74A      0.162844    75A      0.168235  
      76A      0.173891    77A      0.176736    78A      0.178946  
      79A      0.186676    80A      0.192243    81A      0.203538  
      82A      0.207607    83A      0.212372    84A      0.213472  
      85A      0.250118    86A      0.253020    87A      0.265941  
      88A      0.270080    89A      0.276461    90A      0.279678  
      91A      0.286670    92A      0.287987    93A      0.292092  
      94A      0.295069    95A      0.295913    96A      0.301199  
      97A      0.312537    98A      0.317741    99A      0.320700  
     100A      0.323251   101A      0.354539   102A      0.356090  
     103A      0.357905   104A      0.359041   105A      0.364646  
     106A      0.366919   107A      0.382308   108A      0.383202  
     109A      0.398921   110A      0.400998   111A      0.410181  
     112A      0.410680   113A      0.425547   114A      0.426370  
     115A      0.433740   116A      0.434527   117A      0.439003  
     118A      0.441968   119A      0.451570   120A      0.453424  
     121A      0.471569   122A      0.471826   123A      0.492138  
     124A      0.492179   125A      0.504654   126A      0.505756  
     127A      0.513952   128A      0.516872   129A      0.523984  
     130A      0.526297   131A      0.528312   132A      0.532798  
     133A      0.554152   134A      0.555183   135A      0.570348  
     136A      0.571609   137A      0.587213   138A      0.587891  
     139A      0.590948   140A      0.591667   141A      0.593228  
     142A      0.594627   143A      0.608386   144A      0.609045  
     145A      0.642653   146A      0.643887   147A      0.644132  
     148A      0.645291   149A      0.684509   150A      0.685272  
     151A      0.687068   152A      0.688332   153A      0.689461  
     154A      0.689822   155A      0.690359   156A      0.692768  
     157A      0.693952   158A      0.696119   159A      0.703428  
     160A      0.704778   161A      0.745496   162A      0.747885  
     163A      0.754493   164A      0.755085   165A      0.766539  
     166A      0.767313   167A      0.780796   168A      0.782781  
     169A      0.799353   170A      0.800192   171A      0.802380  
     172A      0.803263   173A      0.818287   174A      0.821031  
     175A      0.830782   176A      0.831113   177A      0.846977  
     178A      0.848382   179A      0.880112   180A      0.881052  
     181A      0.885912   182A      0.886546   183A      0.894598  
     184A      0.895705   185A      0.929028   186A      0.929273  
     187A      0.938935   188A      0.939898   189A      0.949452  
     190A      0.949548   191A      0.995859   192A      0.997658  
     193A      0.997841   194A      1.000796   195A      1.012527  
     196A      1.013237   197A      1.032822   198A      1.035077  
     199A      1.050901   200A      1.051230   201A      1.088770  
     202A      1.089466   203A      1.099856   204A      1.101132  
     205A      1.121937   206A      1.123197   207A      1.123871  
     208A      1.124303   209A      1.133897   210A      1.134715  
     211A      1.158347   212A      1.158992   213A      1.173138  
     214A      1.173592   215A      1.234911   216A      1.236001  
     217A      1.238277   218A      1.238913   219A      1.309075  
     220A      1.309988   221A      1.330800   222A      1.331406  
     223A      1.413837   224A      1.414484   225A      1.450920  
     226A      1.451899   227A      1.485438   228A      1.486408  
     229A      1.487575   230A      1.488173   231A      1.498895  
     232A      1.499989   233A      1.502333   234A      1.504106  
     235A      1.517809   236A      1.518872   237A      1.572059  
     238A      1.572685   239A      1.574054   240A      1.575038  
     241A      1.587591   242A      1.589630   243A      1.635452  
     244A      1.637010   245A      1.639075   246A      1.644203  
     247A      1.647844   248A      1.648887   249A      1.675732  
     250A      1.677288   251A      1.716411   252A      1.716984  
     253A      1.746543   254A      1.746605   255A      1.754578  
     256A      1.755447   257A      1.783151   258A      1.785817  
     259A      1.815154   260A      1.815716   261A      1.892720  
     262A      1.893371   263A      1.915619   264A      1.916304  
     265A      1.964272   266A      1.965152   267A      1.987144  
     268A      1.987679   269A      2.030699   270A      2.031448  
     271A      2.091048   272A      2.091597   273A      2.099981  
     274A      2.102404   275A      2.142453   276A      2.143014  
     277A      2.162784   278A      2.163409   279A      2.190229  
     280A      2.190794   281A      2.192950   282A      2.194493  
     283A      2.199747   284A      2.200605   285A      2.202371  
     286A      2.202863   287A      2.227217   288A      2.227716  
     289A      2.312390   290A      2.313250   291A      2.354660  
     292A      2.356279   293A      2.430161   294A      2.431279  
     295A      2.438548   296A      2.439834   297A      2.518890  
     298A      2.519451   299A      2.521895   300A      2.522410  
     301A      2.583654   302A      2.586442   303A      2.605650  
     304A      2.606281   305A      2.664618   306A      2.665903  
     307A      2.674820   308A      2.675568   309A      2.685937  
     310A      2.688212   311A      2.713639   312A      2.714371  
     313A      2.718159   314A      2.718892   315A      2.843396  
     316A      2.844029   317A      2.865167   318A      2.865774  
     319A      2.938528   320A      2.940502   321A      3.001256  
     322A      3.002084   323A      3.017294   324A      3.018190  
     325A      3.031608   326A      3.032216   327A      3.093500  
     328A      3.094295   329A      3.220353   330A      3.223139  
     331A      3.255441   332A      3.255984   333A      3.284453  
     334A      3.285388   335A      3.365615   336A      3.366826  
     337A      3.412906   338A      3.413614   339A      3.514344  
     340A      3.514945   341A      3.589968   342A      3.591370  
     343A      3.627294   344A      3.627774   345A      3.976790  
     346A      3.977536   347A      4.252975   348A      4.253481  

    Final Occupation by Irrep:
              A 
    DOCC [    42 ]

  @DF-RHF Final Energy:  -525.27992659720667

   => Energetics <=

    Nuclear Repulsion Energy =            507.0186266948661569
    One-Electron Energy =               -1714.7224563501167722
    Two-Electron Energy =                 682.4239030580438339
    Total Energy =                       -525.2799265972066678

Computation Completed


Properties will be evaluated at   0.000000,   0.000000,   0.000000 [a0]

Properties computed using the SCF density matrix

  Nuclear Dipole Moment: [e a0]
     X:  -259.9086      Y:  -614.1349      Z:  -408.6291

  Electronic Dipole Moment: [e a0]
     X:   259.9116      Y:   614.1384      Z:   408.6297

  Dipole Moment: [e a0]
     X:     0.0030      Y:     0.0035      Z:     0.0006     Total:     0.0046

  Dipole Moment: [D]
     X:     0.0077      Y:     0.0088      Z:     0.0015     Total:     0.0118


*** tstop() called on atl1-1-01-013-14-l.pace.gatech.edu at Mon Nov 29 16:19:19 2021
Module time:
	user time   =      28.71 seconds =       0.48 minutes
	system time =       1.07 seconds =       0.02 minutes
	total time  =         16 seconds =       0.27 minutes
Total time:
	user time   =      28.71 seconds =       0.48 minutes
	system time =       1.07 seconds =       0.02 minutes
	total time  =         16 seconds =       0.27 minutes

  //>>>>>>>>>>>>>>>>>>>>>>>>>>>>>>>>>>>//
  //            Monomer A HF           //
  //<<<<<<<<<<<<<<<<<<<<<<<<<<<<<<<<<<<//


*** tstart() called on atl1-1-01-013-14-l.pace.gatech.edu
*** at Mon Nov 29 16:19:19 2021

   => Loading Basis Set <=

    Name: AUG-CC-PVDZ
    Role: ORBITAL
    Keyword: BASIS
    atoms 1-2, 11-12  entry N          line   218 file /storage/home/hhive1/csargent30/data/miniconda3/envs/psi4/share/psi4/basis/aug-cc-pvdz.gbs 
    atoms 3-6, 13-16  entry H          line    40 file /storage/home/hhive1/csargent30/data/miniconda3/envs/psi4/share/psi4/basis/aug-cc-pvdz.gbs 
    atoms 7-10, 17-20 entry C          line   182 file /storage/home/hhive1/csargent30/data/miniconda3/envs/psi4/share/psi4/basis/aug-cc-pvdz.gbs 


         ---------------------------------------------------------
                                   SCF
               by Justin Turney, Rob Parrish, Andy Simmonett
                          and Daniel G. A. Smith
                              RHF Reference
                        2 Threads,   6675 MiB Core
         ---------------------------------------------------------

  ==> Geometry <==

    Molecular point group: c1
    Full point group: C1

    Geometry (in Bohr), charge = 0, multiplicity = 1:

       Center              X                  Y                   Z               Mass       
    ------------   -----------------  -----------------  -----------------  -----------------
         N           -1.330847580000     0.980326580000     0.426270370000    14.003074004430
         N            3.953773330000     0.980326580000     0.426270370000    14.003074004430
         H            3.567136740000     4.352185690000    -0.942309730000     1.007825032230
         H           -0.944210980000     4.352185690000    -0.942309730000     1.007825032230
         H           -0.944210980000    -2.391532530000     1.794850470000     1.007825032230
         H            3.567136740000    -2.391532530000     1.794850470000     1.007825032230
         C            2.622925760000     2.940979740000    -0.426270370000    12.000000000000
         C            0.000000000000     2.940979740000    -0.426270370000    12.000000000000
         C            0.000000000000    -0.980326580000     1.278811120000    12.000000000000
         C            2.622925760000    -0.980326580000     1.278811120000    12.000000000000
      Gh(N)         -10.142073580000   -15.602587090000   -10.155534520000    14.003074004430
      Gh(N)          -4.857452670000   -15.602587090000   -10.155534520000    14.003074004430
      Gh(H)          -9.755436980000   -18.974446200000   -11.524114620000     1.007825032230
      Gh(H)          -9.755436980000   -12.230727980000    -8.786954420000     1.007825032230
      Gh(H)          -5.244089270000   -18.974446200000   -11.524114620000     1.007825032230
      Gh(H)          -5.244089270000   -12.230727980000    -8.786954420000     1.007825032230
      Gh(C)          -8.811226010000   -17.563240250000   -11.008075270000    12.000000000000
      Gh(C)          -8.811226010000   -13.641933930000    -9.302993780000    12.000000000000
      Gh(C)          -6.188300250000   -17.563240250000   -11.008075270000    12.000000000000
      Gh(C)          -6.188300250000   -13.641933930000    -9.302993780000    12.000000000000

  Running in c1 symmetry.

  Rotational constants: A =      0.07397  B =      0.00182  C =      0.00180 [cm^-1]
  Rotational constants: A =   2217.42656  B =     54.70512  C =     53.99978 [MHz]
  Nuclear repulsion =  212.551731110485349

  Charge       = 0
  Multiplicity = 1
  Electrons    = 42
  Nalpha       = 21
  Nbeta        = 21

  ==> Algorithm <==

  SCF Algorithm Type is DF.
  DIIS enabled.
  MOM disabled.
  Fractional occupation disabled.
  Guess Type is SAD.
  Energy threshold   = 1.00e-10
  Density threshold  = 1.00e-10
  Integral threshold = 1.00e-12

  ==> Primary Basis <==

  Basis Set: AUG-CC-PVDZ
    Blend: AUG-CC-PVDZ
    Number of shells: 148
    Number of basis functions: 348
    Number of Cartesian functions: 372
    Spherical Harmonics?: true
    Max angular momentum: 2

   => Loading Basis Set <=

    Name: (AUG-CC-PVDZ AUX)
    Role: JKFIT
    Keyword: DF_BASIS_SCF
    atoms 1-2, 11-12  entry N          line   212 file /storage/home/hhive1/csargent30/data/miniconda3/envs/psi4/share/psi4/basis/aug-cc-pvdz-jkfit.gbs 
    atoms 3-6, 13-16  entry H          line    70 file /storage/home/hhive1/csargent30/data/miniconda3/envs/psi4/share/psi4/basis/aug-cc-pvdz-jkfit.gbs 
    atoms 7-10, 17-20 entry C          line   154 file /storage/home/hhive1/csargent30/data/miniconda3/envs/psi4/share/psi4/basis/aug-cc-pvdz-jkfit.gbs 

  ==> Integral Setup <==

  ==> DiskDFJK: Density-Fitted J/K Matrices <==

    J tasked:                  Yes
    K tasked:                  Yes
    wK tasked:                  No
    OpenMP threads:              2
    Integrals threads:           2
    Memory [MiB]:             5006
    Algorithm:                Core
    Integral Cache:           LOAD
    Schwarz Cutoff:          1E-12
    Fitting Condition:       1E-10

   => Auxiliary Basis Set <=

  Basis Set: (AUG-CC-PVDZ AUX)
    Blend: AUG-CC-PVDZ-JKFIT
    Number of shells: 432
    Number of basis functions: 1288
    Number of Cartesian functions: 1492
    Spherical Harmonics?: true
    Max angular momentum: 3

  Minimum eigenvalue in the overlap matrix is 9.2636958589E-06.
  Reciprocal condition number of the overlap matrix is 7.2239357098E-07.
    Using symmetric orthogonalization.

  ==> Pre-Iterations <==

  SCF Guess: Superposition of Atomic Densities via on-the-fly atomic UHF (no occupation information).

   -------------------------
    Irrep   Nso     Nmo    
   -------------------------
     A        348     348 
   -------------------------
    Total     348     348
   -------------------------

  ==> Iterations <==

                           Total Energy        Delta E     RMS |[F,P]|

   @DF-RHF iter SAD:  -262.32523128880450   -2.62325e+02   0.00000e+00 
   @DF-RHF iter   1:  -262.53941254870972   -2.14181e-01   1.11987e-03 DIIS
   @DF-RHF iter   2:  -262.62879378085051   -8.93812e-02   4.10669e-04 DIIS
   @DF-RHF iter   3:  -262.63862852460068   -9.83474e-03   1.28248e-04 DIIS
   @DF-RHF iter   4:  -262.63985329799914   -1.22477e-03   3.77600e-05 DIIS
   @DF-RHF iter   5:  -262.63994289897187   -8.96010e-05   7.55587e-06 DIIS
   @DF-RHF iter   6:  -262.63994944909012   -6.55012e-06   2.45250e-06 DIIS
   @DF-RHF iter   7:  -262.63995040136041   -9.52270e-07   6.40123e-07 DIIS
   @DF-RHF iter   8:  -262.63995047524611   -7.38857e-08   9.91707e-08 DIIS
   @DF-RHF iter   9:  -262.63995047723250   -1.98639e-09   1.88248e-08 DIIS
   @DF-RHF iter  10:  -262.63995047730282   -7.03153e-11   3.20064e-09 DIIS
   @DF-RHF iter  11:  -262.63995047730560   -2.78533e-12   6.07757e-10 DIIS
   @DF-RHF iter  12:  -262.63995047730515    4.54747e-13   3.28744e-10 DIIS
   @DF-RHF iter  13:  -262.63995047730612   -9.66338e-13   7.84158e-11 DIIS
  Energy and wave function converged.


  ==> Post-Iterations <==

    Orbital Energies [Eh]
    ---------------------

    Doubly Occupied:                                                      

       1A    -15.598073     2A    -15.598054     3A    -11.274239  
       4A    -11.274194     5A    -11.272975     6A    -11.272969  
       7A     -1.313348     8A     -1.224176     9A     -1.076804  
      10A     -0.922663    11A     -0.919284    12A     -0.760639  
      13A     -0.738402    14A     -0.706215    15A     -0.647689  
      16A     -0.580712    17A     -0.574370    18A     -0.497113  
      19A     -0.434289    20A     -0.415856    21A     -0.359925  

    Virtual:                                                              

      22A      0.021558    23A      0.032098    24A      0.038465  
      25A      0.040128    26A      0.044335    27A      0.049895  
      28A      0.057972    29A      0.059416    30A      0.068270  
      31A      0.079662    32A      0.085978    33A      0.099515  
      34A      0.100273    35A      0.102218    36A      0.108384  
      37A      0.108455    38A      0.114579    39A      0.115908  
      40A      0.120636    41A      0.124508    42A      0.125391  
      43A      0.127755    44A      0.128286    45A      0.130833  
      46A      0.135224    47A      0.138256    48A      0.152658  
      49A      0.156241    50A      0.157097    51A      0.160128  
      52A      0.162124    53A      0.165092    54A      0.169977  
      55A      0.175623    56A      0.176810    57A      0.189916  
      58A      0.198467    59A      0.204563    60A      0.204833  
      61A      0.207504    62A      0.212899    63A      0.227099  
      64A      0.236401    65A      0.239897    66A      0.252656  
      67A      0.257090    68A      0.268345    69A      0.271384  
      70A      0.279376    71A      0.289229    72A      0.292375  
      73A      0.295357    74A      0.307734    75A      0.314978  
      76A      0.321389    77A      0.323661    78A      0.330701  
      79A      0.332195    80A      0.344918    81A      0.355796  
      82A      0.358556    83A      0.366165    84A      0.380852  
      85A      0.383379    86A      0.385545    87A      0.399392  
      88A      0.401655    89A      0.410748    90A      0.419665  
      91A      0.424704    92A      0.426954    93A      0.436088  
      94A      0.439441    95A      0.441987    96A      0.452578  
      97A      0.460595    98A      0.462170    99A      0.472118  
     100A      0.476821   101A      0.479251   102A      0.492726  
     103A      0.505968   104A      0.508562   105A      0.515580  
     106A      0.524695   107A      0.524871   108A      0.529548  
     109A      0.540488   110A      0.554710   111A      0.558293  
     112A      0.561642   113A      0.564492   114A      0.571059  
     115A      0.583427   116A      0.588639   117A      0.591817  
     118A      0.594460   119A      0.596337   120A      0.609026  
     121A      0.615378   122A      0.620553   123A      0.636644  
     124A      0.643720   125A      0.644663   126A      0.649310  
     127A      0.651391   128A      0.680128   129A      0.685431  
     130A      0.686183   131A      0.689036   132A      0.690075  
     133A      0.691110   134A      0.695089   135A      0.704027  
     136A      0.720142   137A      0.729950   138A      0.747015  
     139A      0.747440   140A      0.755309   141A      0.767516  
     142A      0.775584   143A      0.782469   144A      0.794030  
     145A      0.800362   146A      0.803011   147A      0.811472  
     148A      0.812117   149A      0.819572   150A      0.824690  
     151A      0.831454   152A      0.847970   153A      0.848095  
     154A      0.850009   155A      0.869156   156A      0.881068  
     157A      0.886547   158A      0.888078   159A      0.895993  
     160A      0.906053   161A      0.929551   162A      0.929975  
     163A      0.939902   164A      0.947520   165A      0.950371  
     166A      0.970687   167A      0.976847   168A      0.986640  
     169A      0.997261   170A      0.999273   171A      1.013222  
     172A      1.032327   173A      1.033992   174A      1.047124  
     175A      1.051668   176A      1.076736   177A      1.089415  
     178A      1.090190   179A      1.100679   180A      1.122557  
     181A      1.124398   182A      1.131663   183A      1.134578  
     184A      1.140337   185A      1.158938   186A      1.168502  
     187A      1.170646   188A      1.173713   189A      1.192567  
     190A      1.195415   191A      1.200461   192A      1.222612  
     193A      1.235542   194A      1.238928   195A      1.251084  
     196A      1.307805   197A      1.309710   198A      1.318273  
     199A      1.326656   200A      1.329531   201A      1.331816  
     202A      1.347278   203A      1.389628   204A      1.414480  
     205A      1.448487   206A      1.451597   207A      1.455419  
     208A      1.480072   209A      1.486106   210A      1.487477  
     211A      1.488389   212A      1.499709   213A      1.503309  
     214A      1.518497   215A      1.572729   216A      1.574901  
     217A      1.588745   218A      1.636325   219A      1.640815  
     220A      1.648663   221A      1.659224   222A      1.676776  
     223A      1.698091   224A      1.717033   225A      1.747172  
     226A      1.755227   227A      1.784866   228A      1.815760  
     229A      1.893334   230A      1.916354   231A      1.964991  
     232A      1.987771   233A      2.031334   234A      2.070260  
     235A      2.091654   236A      2.101425   237A      2.103130  
     238A      2.119715   239A      2.143064   240A      2.156595  
     241A      2.159491   242A      2.163412   243A      2.191448  
     244A      2.193407   245A      2.194967   246A      2.200454  
     247A      2.202896   248A      2.227792   249A      2.235040  
     250A      2.243921   251A      2.249660   252A      2.309971  
     253A      2.313346   254A      2.319809   255A      2.355447  
     256A      2.384906   257A      2.419902   258A      2.430964  
     259A      2.435300   260A      2.438072   261A      2.441878  
     262A      2.472590   263A      2.487012   264A      2.498259  
     265A      2.519529   266A      2.522542   267A      2.525411  
     268A      2.546066   269A      2.569483   270A      2.585796  
     271A      2.592495   272A      2.606274   273A      2.626075  
     274A      2.665387   275A      2.675573   276A      2.686703  
     277A      2.714446   278A      2.717248   279A      2.718851  
     280A      2.726551   281A      2.767840   282A      2.844023  
     283A      2.865798   284A      2.904236   285A      2.939249  
     286A      2.947690   287A      2.955830   288A      2.973295  
     289A      3.001903   290A      3.018125   291A      3.032228  
     292A      3.058236   293A      3.066475   294A      3.094160  
     295A      3.114300   296A      3.220961   297A      3.245685  
     298A      3.256058   299A      3.285056   300A      3.289627  
     301A      3.321875   302A      3.337918   303A      3.340545  
     304A      3.348564   305A      3.351347   306A      3.366228  
     307A      3.412645   308A      3.413672   309A      3.470849  
     310A      3.501906   311A      3.514959   312A      3.521446  
     313A      3.590762   314A      3.605610   315A      3.605899  
     316A      3.627937   317A      3.700455   318A      3.819405  
     319A      3.830620   320A      3.940948   321A      3.969737  
     322A      3.977554   323A      4.011477   324A      4.195740  
     325A      4.244049   326A      4.253673   327A      4.441980  
     328A      4.546794   329A      4.579202   330A      4.867578  
     331A      4.976419   332A      5.058867   333A      5.263479  
     334A      5.316481   335A      5.631501   336A      5.691633  
     337A      5.827114   338A      5.952578   339A      6.284169  
     340A      6.307054   341A      6.453713   342A      6.631206  
     343A     18.125666   344A     18.208149   345A     19.018368  
     346A     19.343034   347A     25.287048   348A     25.374703  

    Final Occupation by Irrep:
              A 
    DOCC [    21 ]

  @DF-RHF Final Energy:  -262.63995047730612

   => Energetics <=

    Nuclear Repulsion Energy =            212.5517311104853491
    One-Electron Energy =                -775.4593917099755345
    Two-Electron Energy =                 300.2677101221840985
    Total Energy =                       -262.6399504773061153

Computation Completed


Properties will be evaluated at   0.000000,   0.000000,   0.000000 [a0]

Properties computed using the SCF density matrix

  Nuclear Dipole Moment: [e a0]
     X:    55.0814      Y:    41.1737      Z:    17.9034

  Electronic Dipole Moment: [e a0]
     X:   -55.0814      Y:   -41.1737      Z:   -17.9034

  Dipole Moment: [e a0]
     X:     0.0000      Y:     0.0000      Z:    -0.0000     Total:     0.0000

  Dipole Moment: [D]
     X:     0.0001      Y:     0.0001      Z:    -0.0001     Total:     0.0001


*** tstop() called on atl1-1-01-013-14-l.pace.gatech.edu at Mon Nov 29 16:19:29 2021
Module time:
	user time   =      17.76 seconds =       0.30 minutes
	system time =       0.52 seconds =       0.01 minutes
	total time  =         10 seconds =       0.17 minutes
Total time:
	user time   =      46.48 seconds =       0.77 minutes
	system time =       1.59 seconds =       0.03 minutes
	total time  =         26 seconds =       0.43 minutes

  //>>>>>>>>>>>>>>>>>>>>>>>>>>>>>>>>>>>//
  //            Monomer B HF           //
  //<<<<<<<<<<<<<<<<<<<<<<<<<<<<<<<<<<<//


*** tstart() called on atl1-1-01-013-14-l.pace.gatech.edu
*** at Mon Nov 29 16:19:29 2021

   => Loading Basis Set <=

    Name: AUG-CC-PVDZ
    Role: ORBITAL
    Keyword: BASIS
    atoms 1-2, 11-12  entry N          line   218 file /storage/home/hhive1/csargent30/data/miniconda3/envs/psi4/share/psi4/basis/aug-cc-pvdz.gbs 
    atoms 3-6, 13-16  entry H          line    40 file /storage/home/hhive1/csargent30/data/miniconda3/envs/psi4/share/psi4/basis/aug-cc-pvdz.gbs 
    atoms 7-10, 17-20 entry C          line   182 file /storage/home/hhive1/csargent30/data/miniconda3/envs/psi4/share/psi4/basis/aug-cc-pvdz.gbs 


         ---------------------------------------------------------
                                   SCF
               by Justin Turney, Rob Parrish, Andy Simmonett
                          and Daniel G. A. Smith
                              RHF Reference
                        2 Threads,   6675 MiB Core
         ---------------------------------------------------------

  ==> Geometry <==

    Molecular point group: c1
    Full point group: C1

    Geometry (in Bohr), charge = 0, multiplicity = 1:

       Center              X                  Y                   Z               Mass       
    ------------   -----------------  -----------------  -----------------  -----------------
      Gh(N)          -1.330847580000     0.980326580000     0.426270370000    14.003074004430
      Gh(N)           3.953773330000     0.980326580000     0.426270370000    14.003074004430
      Gh(H)           3.567136740000     4.352185690000    -0.942309730000     1.007825032230
      Gh(H)          -0.944210980000     4.352185690000    -0.942309730000     1.007825032230
      Gh(H)          -0.944210980000    -2.391532530000     1.794850470000     1.007825032230
      Gh(H)           3.567136740000    -2.391532530000     1.794850470000     1.007825032230
      Gh(C)           2.622925760000     2.940979740000    -0.426270370000    12.000000000000
      Gh(C)           0.000000000000     2.940979740000    -0.426270370000    12.000000000000
      Gh(C)           0.000000000000    -0.980326580000     1.278811120000    12.000000000000
      Gh(C)           2.622925760000    -0.980326580000     1.278811120000    12.000000000000
         N          -10.142073580000   -15.602587090000   -10.155534520000    14.003074004430
         N           -4.857452670000   -15.602587090000   -10.155534520000    14.003074004430
         H           -9.755436980000   -18.974446200000   -11.524114620000     1.007825032230
         H           -9.755436980000   -12.230727980000    -8.786954420000     1.007825032230
         H           -5.244089270000   -18.974446200000   -11.524114620000     1.007825032230
         H           -5.244089270000   -12.230727980000    -8.786954420000     1.007825032230
         C           -8.811226010000   -17.563240250000   -11.008075270000    12.000000000000
         C           -8.811226010000   -13.641933930000    -9.302993780000    12.000000000000
         C           -6.188300250000   -17.563240250000   -11.008075270000    12.000000000000
         C           -6.188300250000   -13.641933930000    -9.302993780000    12.000000000000

  Running in c1 symmetry.

  Rotational constants: A =      0.07397  B =      0.00182  C =      0.00180 [cm^-1]
  Rotational constants: A =   2217.42656  B =     54.70512  C =     53.99978 [MHz]
  Nuclear repulsion =  212.551731143112960

  Charge       = 0
  Multiplicity = 1
  Electrons    = 42
  Nalpha       = 21
  Nbeta        = 21

  ==> Algorithm <==

  SCF Algorithm Type is DF.
  DIIS enabled.
  MOM disabled.
  Fractional occupation disabled.
  Guess Type is SAD.
  Energy threshold   = 1.00e-10
  Density threshold  = 1.00e-10
  Integral threshold = 1.00e-12

  ==> Primary Basis <==

  Basis Set: AUG-CC-PVDZ
    Blend: AUG-CC-PVDZ
    Number of shells: 148
    Number of basis functions: 348
    Number of Cartesian functions: 372
    Spherical Harmonics?: true
    Max angular momentum: 2

   => Loading Basis Set <=

    Name: (AUG-CC-PVDZ AUX)
    Role: JKFIT
    Keyword: DF_BASIS_SCF
    atoms 1-2, 11-12  entry N          line   212 file /storage/home/hhive1/csargent30/data/miniconda3/envs/psi4/share/psi4/basis/aug-cc-pvdz-jkfit.gbs 
    atoms 3-6, 13-16  entry H          line    70 file /storage/home/hhive1/csargent30/data/miniconda3/envs/psi4/share/psi4/basis/aug-cc-pvdz-jkfit.gbs 
    atoms 7-10, 17-20 entry C          line   154 file /storage/home/hhive1/csargent30/data/miniconda3/envs/psi4/share/psi4/basis/aug-cc-pvdz-jkfit.gbs 

  ==> Integral Setup <==

  ==> DiskDFJK: Density-Fitted J/K Matrices <==

    J tasked:                  Yes
    K tasked:                  Yes
    wK tasked:                  No
    OpenMP threads:              2
    Integrals threads:           2
    Memory [MiB]:             5006
    Algorithm:                Core
    Integral Cache:           LOAD
    Schwarz Cutoff:          1E-12
    Fitting Condition:       1E-10

   => Auxiliary Basis Set <=

  Basis Set: (AUG-CC-PVDZ AUX)
    Blend: AUG-CC-PVDZ-JKFIT
    Number of shells: 432
    Number of basis functions: 1288
    Number of Cartesian functions: 1492
    Spherical Harmonics?: true
    Max angular momentum: 3

  Minimum eigenvalue in the overlap matrix is 9.2636958589E-06.
  Reciprocal condition number of the overlap matrix is 7.2239357098E-07.
    Using symmetric orthogonalization.

  ==> Pre-Iterations <==

  SCF Guess: Superposition of Atomic Densities via on-the-fly atomic UHF (no occupation information).

   -------------------------
    Irrep   Nso     Nmo    
   -------------------------
     A        348     348 
   -------------------------
    Total     348     348
   -------------------------

  ==> Iterations <==

                           Total Energy        Delta E     RMS |[F,P]|

   @DF-RHF iter SAD:  -262.32523128245930   -2.62325e+02   0.00000e+00 
   @DF-RHF iter   1:  -262.53941245756278   -2.14181e-01   1.11987e-03 DIIS
   @DF-RHF iter   2:  -262.62879368911604   -8.93812e-02   4.10671e-04 DIIS
   @DF-RHF iter   3:  -262.63862842638775   -9.83474e-03   1.28248e-04 DIIS
   @DF-RHF iter   4:  -262.63985317831242   -1.22475e-03   3.77604e-05 DIIS
   @DF-RHF iter   5:  -262.63994278006885   -8.96018e-05   7.55567e-06 DIIS
   @DF-RHF iter   6:  -262.63994933030375   -6.55023e-06   2.45262e-06 DIIS
   @DF-RHF iter   7:  -262.63995028266226   -9.52359e-07   6.40128e-07 DIIS
   @DF-RHF iter   8:  -262.63995035655012   -7.38879e-08   9.91690e-08 DIIS
   @DF-RHF iter   9:  -262.63995035853588   -1.98577e-09   1.88242e-08 DIIS
   @DF-RHF iter  10:  -262.63995035860671   -7.08269e-11   3.20132e-09 DIIS
   @DF-RHF iter  11:  -262.63995035860847   -1.76215e-12   6.18687e-10 DIIS
   @DF-RHF iter  12:  -262.63995035860955   -1.08002e-12   3.58414e-10 DIIS
   @DF-RHF iter  13:  -262.63995035860961   -5.68434e-14   7.76063e-11 DIIS
  Energy and wave function converged.


  ==> Post-Iterations <==

    Orbital Energies [Eh]
    ---------------------

    Doubly Occupied:                                                      

       1A    -15.598071     2A    -15.598052     3A    -11.274237  
       4A    -11.274192     5A    -11.272974     6A    -11.272967  
       7A     -1.313347     8A     -1.224175     9A     -1.076803  
      10A     -0.922662    11A     -0.919282    12A     -0.760637  
      13A     -0.738401    14A     -0.706214    15A     -0.647688  
      16A     -0.580711    17A     -0.574369    18A     -0.497112  
      19A     -0.434288    20A     -0.415855    21A     -0.359924  

    Virtual:                                                              

      22A      0.020362    23A      0.032662    24A      0.037723  
      25A      0.039341    26A      0.045664    27A      0.048881  
      28A      0.057654    29A      0.059309    30A      0.067306  
      31A      0.080550    32A      0.085563    33A      0.098742  
      34A      0.099411    35A      0.103467    36A      0.108031  
      37A      0.109881    38A      0.114338    39A      0.114725  
      40A      0.118658    41A      0.124067    42A      0.126196  
      43A      0.126511    44A      0.128038    45A      0.132505  
      46A      0.134597    47A      0.136363    48A      0.151413  
      49A      0.152414    50A      0.157087    51A      0.159644  
      52A      0.162089    53A      0.165484    54A      0.173884  
      55A      0.175821    56A      0.178787    57A      0.187415  
      58A      0.197845    59A      0.202995    60A      0.205521  
      61A      0.212612    62A      0.213204    63A      0.222644  
      64A      0.233868    65A      0.239034    66A      0.250713  
      67A      0.257582    68A      0.268452    69A      0.271135  
      70A      0.278373    71A      0.288113    72A      0.294836  
      73A      0.297616    74A      0.303620    75A      0.315139  
      76A      0.320700    77A      0.321924    78A      0.327916  
      79A      0.332720    80A      0.343747    81A      0.357894  
      82A      0.358612    83A      0.364879    84A      0.380645  
      85A      0.382908    86A      0.385978    87A      0.400133  
      88A      0.401922    89A      0.410333    90A      0.419150  
      91A      0.425877    92A      0.427832    93A      0.434169  
      94A      0.439730    95A      0.444167    96A      0.452706  
      97A      0.460033    98A      0.461711    99A      0.471429  
     100A      0.477115   101A      0.480687   102A      0.492155  
     103A      0.505070   104A      0.507870   105A      0.516695  
     106A      0.523620   107A      0.525262   108A      0.529906  
     109A      0.535427   110A      0.554721   111A      0.557759  
     112A      0.560914   113A      0.564020   114A      0.571606  
     115A      0.582100   116A      0.587641   117A      0.591514  
     118A      0.593945   119A      0.595469   120A      0.608978  
     121A      0.615060   122A      0.622076   123A      0.636523  
     124A      0.643984   125A      0.645530   126A      0.648718  
     127A      0.650817   128A      0.678785   129A      0.684608  
     130A      0.685359   131A      0.688193   132A      0.689991  
     133A      0.692116   134A      0.695471   135A      0.704706  
     136A      0.719531   137A      0.728593   138A      0.747197  
     139A      0.747664   140A      0.755164   141A      0.767192  
     142A      0.775575   143A      0.781696   144A      0.793193  
     145A      0.800094   146A      0.802850   147A      0.810927  
     148A      0.811408   149A      0.820167   150A      0.824736  
     151A      0.831089   152A      0.846914   153A      0.848366  
     154A      0.848956   155A      0.868388   156A      0.880799  
     157A      0.886377   158A      0.888184   159A      0.894898  
     160A      0.906148   161A      0.929259   162A      0.929290  
     163A      0.939677   164A      0.947292   165A      0.949493  
     166A      0.970202   167A      0.976228   168A      0.986123  
     169A      0.997138   170A      0.999839   171A      1.013222  
     172A      1.031833   173A      1.034401   174A      1.046876  
     175A      1.051238   176A      1.075866   177A      1.089490  
     178A      1.089610   179A      1.100878   180A      1.123217  
     181A      1.124096   182A      1.130514   183A      1.134706  
     184A      1.139727   185A      1.158906   186A      1.168453  
     187A      1.170147   188A      1.173588   189A      1.192198  
     190A      1.192857   191A      1.199865   192A      1.221730  
     193A      1.236000   194A      1.238860   195A      1.250757  
     196A      1.306899   197A      1.309948   198A      1.317918  
     199A      1.325918   200A      1.329248   201A      1.331283  
     202A      1.346518   203A      1.388863   204A      1.414489  
     205A      1.447737   206A      1.451891   207A      1.454852  
     208A      1.478621   209A      1.486059   210A      1.487001  
     211A      1.488261   212A      1.500164   213A      1.503704  
     214A      1.518807   215A      1.572749   216A      1.574809  
     217A      1.589077   218A      1.636936   219A      1.642952  
     220A      1.648655   221A      1.658770   222A      1.676847  
     223A      1.697442   224A      1.717002   225A      1.746618  
     226A      1.755421   227A      1.784508   228A      1.815728  
     229A      1.893379   230A      1.916184   231A      1.965032  
     232A      1.987686   233A      2.031404   234A      2.069734  
     235A      2.091585   236A      2.101229   237A      2.102987  
     238A      2.120214   239A      2.143018   240A      2.156379  
     241A      2.158781   242A      2.163419   243A      2.190573  
     244A      2.193549   245A      2.195320   246A      2.200716  
     247A      2.202417   248A      2.227651   249A      2.234528  
     250A      2.240911   251A      2.249034   252A      2.309359  
     253A      2.312895   254A      2.319808   255A      2.356108  
     256A      2.384509   257A      2.418599   258A      2.431019  
     259A      2.434922   260A      2.437504   261A      2.439390  
     262A      2.472256   263A      2.486349   264A      2.497713  
     265A      2.519457   266A      2.522407   267A      2.524611  
     268A      2.545473   269A      2.568782   270A      2.585194  
     271A      2.592151   272A      2.606300   273A      2.625382  
     274A      2.665761   275A      2.675481   276A      2.688017  
     277A      2.714144   278A      2.716509   279A      2.718727  
     280A      2.725961   281A      2.767675   282A      2.844048  
     283A      2.865785   284A      2.904769   285A      2.939983  
     286A      2.947130   287A      2.956058   288A      2.972790  
     289A      3.002068   290A      3.017971   291A      3.032235  
     292A      3.057751   293A      3.064956   294A      3.094209  
     295A      3.113804   296A      3.223121   297A      3.245094  
     298A      3.255991   299A      3.285388   300A      3.288997  
     301A      3.321381   302A      3.337297   303A      3.340052  
     304A      3.347977   305A      3.350976   306A      3.366879  
     307A      3.412092   308A      3.413547   309A      3.470267  
     310A      3.501433   311A      3.514957   312A      3.521052  
     313A      3.591124   314A      3.604089   315A      3.605466  
     316A      3.627791   317A      3.699982   318A      3.818515  
     319A      3.830027   320A      3.940474   321A      3.968530  
     322A      3.977396   323A      4.010962   324A      4.194201  
     325A      4.242354   326A      4.253496   327A      4.441805  
     328A      4.546265   329A      4.578643   330A      4.866986  
     331A      4.975526   332A      5.057369   333A      5.261257  
     334A      5.315979   335A      5.629702   336A      5.690812  
     337A      5.826532   338A      5.952003   339A      6.283256  
     340A      6.306255   341A      6.453134   342A      6.630626  
     343A     18.125077   344A     18.207371   345A     19.017540  
     346A     19.342453   347A     25.286398   348A     25.374110  

    Final Occupation by Irrep:
              A 
    DOCC [    21 ]

  @DF-RHF Final Energy:  -262.63995035860961

   => Energetics <=

    Nuclear Repulsion Energy =            212.5517311431129599
    One-Electron Energy =                -775.4594331497452231
    Two-Electron Energy =                 300.2677516480226245
    Total Energy =                       -262.6399503586096102

Computation Completed


Properties will be evaluated at   0.000000,   0.000000,   0.000000 [a0]

Properties computed using the SCF density matrix

  Nuclear Dipole Moment: [e a0]
     X:  -314.9901      Y:  -655.3087      Z:  -426.5324

  Electronic Dipole Moment: [e a0]
     X:   314.9900      Y:   655.3087      Z:   426.5325

  Dipole Moment: [e a0]
     X:    -0.0000      Y:     0.0000      Z:     0.0000     Total:     0.0000

  Dipole Moment: [D]
     X:    -0.0001      Y:     0.0000      Z:     0.0001     Total:     0.0001


*** tstop() called on atl1-1-01-013-14-l.pace.gatech.edu at Mon Nov 29 16:19:39 2021
Module time:
	user time   =      17.71 seconds =       0.30 minutes
	system time =       0.52 seconds =       0.01 minutes
	total time  =         10 seconds =       0.17 minutes
Total time:
	user time   =      64.20 seconds =       1.07 minutes
	system time =       2.11 seconds =       0.04 minutes
	total time  =         36 seconds =       0.60 minutes
  Constructing Basis Sets for SAPT...

   => Loading Basis Set <=

    Name: (AUG-CC-PVDZ AUX)
    Role: RIFIT
    Keyword: DF_BASIS_SAPT
    atoms 1-2, 11-12  entry N          line   158 file /storage/home/hhive1/csargent30/data/miniconda3/envs/psi4/share/psi4/basis/aug-cc-pvdz-ri.gbs 
    atoms 3-6, 13-16  entry H          line    30 file /storage/home/hhive1/csargent30/data/miniconda3/envs/psi4/share/psi4/basis/aug-cc-pvdz-ri.gbs 
    atoms 7-10, 17-20 entry C          line   112 file /storage/home/hhive1/csargent30/data/miniconda3/envs/psi4/share/psi4/basis/aug-cc-pvdz-ri.gbs 


  //>>>>>>>>>>>>>>>>>>>>>>>>>>>>>>>>>>>//
  //               SAPT0               //
  //<<<<<<<<<<<<<<<<<<<<<<<<<<<<<<<<<<<//


*** tstart() called on atl1-1-01-013-14-l.pace.gatech.edu
*** at Mon Nov 29 16:19:39 2021

        SAPT0  
    Ed Hohenstein
     6 June 2009

      Orbital Information
  --------------------------
    NSO        =       348
    NMO        =       348
    NRI        =      1048
    NOCC A     =        21
    NOCC B     =        21
    FOCC A     =         6
    FOCC B     =         6
    NVIR A     =       327
    NVIR B     =       327

    Elst10,r            =    -0.000025322635 [Eh]
    Exch10              =     0.000000001893 [Eh]
    Exch10 (S^2)        =     0.000000001893 [Eh]

    Iter     Energy [mEh]          dE [mEh]         Residual      Time [s]
       1      -0.00032119       0.000321186       0.201792787             0
       2      -0.00028914      -0.000032046       0.048840179             0
       3      -0.00031310       0.000023958       0.020531474             1
       4      -0.00031975       0.000006651       0.005026668             1
       5      -0.00031894      -0.000000814       0.002478663             1
       6      -0.00031862      -0.000000314       0.001058464             2
       7      -0.00031870       0.000000083       0.000522324             2
       8      -0.00031877       0.000000062       0.000173878             2
       9      -0.00031876      -0.000000006       0.000060662             3
      10      -0.00031875      -0.000000009       0.000017931             3
      11      -0.00031875       0.000000001       0.000008996             4
      12      -0.00031875       0.000000001       0.000003559             4
      13      -0.00031875      -0.000000000       0.000001520             4
      14      -0.00031875      -0.000000000       0.000000484             5

    CHF Iterations converged


    Iter     Energy [mEh]          dE [mEh]         Residual      Time [s]
       1      -0.00008739       0.000087390       0.093462124             0
       2      -0.00008063      -0.000006757       0.024931837             0
       3      -0.00008634       0.000005706       0.011399982             1
       4      -0.00008867       0.000002330       0.002836106             1
       5      -0.00008840      -0.000000269       0.001713537             1
       6      -0.00008828      -0.000000124       0.000692971             2
       7      -0.00008832       0.000000042       0.000267369             2
       8      -0.00008833       0.000000014       0.000087619             3
       9      -0.00008833      -0.000000001       0.000031036             3
      10      -0.00008833      -0.000000002       0.000011035             3
      11      -0.00008833       0.000000000       0.000005659             4
      12      -0.00008833       0.000000000       0.000002105             4
      13      -0.00008833      -0.000000000       0.000000845             4

    CHF Iterations converged

    Ind20,r (A<-B)      =    -0.000000318753 [Eh]
    Ind20,r (B<-A)      =    -0.000000088329 [Eh]
    Ind20,r             =    -0.000000407081 [Eh]
    Exch-Ind20,r (A<-B) =     0.000000004341 [Eh]
    Exch-Ind20,r (B<-A) =     0.000000001534 [Eh]
    Exch-Ind20,r        =     0.000000005875 [Eh]
    Disp20              =    -0.000020031673 [Eh]
    Disp20 (SS)         =    -0.000010015837 [Eh]
    Disp20 (OS)         =    -0.000010015837 [Eh]
    Exch-Disp20         =     0.000000000611 [Eh]
    Exch-Disp20 (SS)    =     0.000000000515 [Eh]
    Exch-Disp20 (OS)    =     0.000000000096 [Eh]

    SAPT Results 
  --------------------------------------------------------------------------------------------------------
    Electrostatics                 -0.02532264 [mEh]      -0.01589019 [kcal/mol]      -0.06648457 [kJ/mol]
      Elst10,r                     -0.02532264 [mEh]      -0.01589019 [kcal/mol]      -0.06648457 [kJ/mol]

    Exchange                        0.00000189 [mEh]       0.00000119 [kcal/mol]       0.00000497 [kJ/mol]
      Exch10                        0.00000189 [mEh]       0.00000119 [kcal/mol]       0.00000497 [kJ/mol]
      Exch10(S^2)                   0.00000189 [mEh]       0.00000119 [kcal/mol]       0.00000497 [kJ/mol]

    Induction                      -0.00044055 [mEh]      -0.00027645 [kcal/mol]      -0.00115666 [kJ/mol]
      Ind20,r                      -0.00040708 [mEh]      -0.00025545 [kcal/mol]      -0.00106879 [kJ/mol]
      Exch-Ind20,r                  0.00000588 [mEh]       0.00000369 [kcal/mol]       0.00001543 [kJ/mol]
      delta HF,r (2)               -0.00003934 [mEh]      -0.00002469 [kcal/mol]      -0.00010329 [kJ/mol]

    Dispersion                     -0.02003106 [mEh]      -0.01256968 [kcal/mol]      -0.05259155 [kJ/mol]
      Disp20                       -0.02003167 [mEh]      -0.01257006 [kcal/mol]      -0.05259315 [kJ/mol]
      Exch-Disp20                   0.00000061 [mEh]       0.00000038 [kcal/mol]       0.00000160 [kJ/mol]
      Disp20 (SS)                  -0.01001584 [mEh]      -0.00628503 [kcal/mol]      -0.02629658 [kJ/mol]
      Disp20 (OS)                  -0.01001584 [mEh]      -0.00628503 [kcal/mol]      -0.02629658 [kJ/mol]
      Exch-Disp20 (SS)              0.00000052 [mEh]       0.00000032 [kcal/mol]       0.00000135 [kJ/mol]
      Exch-Disp20 (OS)              0.00000010 [mEh]       0.00000006 [kcal/mol]       0.00000025 [kJ/mol]

  Total HF                         -0.02576129 [mEh]      -0.01616545 [kcal/mol]      -0.06763626 [kJ/mol]
  Total SAPT0                      -0.04579235 [mEh]      -0.02873514 [kcal/mol]      -0.12022781 [kJ/mol]

  Special recipe for scaled SAPT0 (see Manual):
    Electrostatics sSAPT0          -0.02532264 [mEh]      -0.01589019 [kcal/mol]      -0.06648457 [kJ/mol]
    Exchange sSAPT0                 0.00000189 [mEh]       0.00000119 [kcal/mol]       0.00000497 [kJ/mol]
    Induction sSAPT0               -0.00044055 [mEh]      -0.00027645 [kcal/mol]      -0.00115666 [kJ/mol]
    Dispersion sSAPT0              -0.02003106 [mEh]      -0.01256968 [kcal/mol]      -0.05259155 [kJ/mol]
  Total sSAPT0                     -0.04579235 [mEh]      -0.02873514 [kcal/mol]      -0.12022781 [kJ/mol]
  --------------------------------------------------------------------------------------------------------

*** tstop() called on atl1-1-01-013-14-l.pace.gatech.edu at Mon Nov 29 16:20:06 2021
Module time:
	user time   =      40.64 seconds =       0.68 minutes
	system time =       9.97 seconds =       0.17 minutes
	total time  =         27 seconds =       0.45 minutes
Total time:
	user time   =     105.08 seconds =       1.75 minutes
	system time =      12.09 seconds =       0.20 minutes
	total time  =         63 seconds =       1.05 minutes


Warning! sapt0 does not have an associated derived wavefunction.The returned wavefunction is the dimer SCF wavefunction.


    Psi4 stopped on: Monday, 29 November 2021 04:20PM
    Psi4 wall time for execution: 0:01:02.77

*** Psi4 exiting successfully. Buy a developer a beer!
