
    -----------------------------------------------------------------------
          Psi4: An Open-Source Ab Initio Electronic Structure Package
                               Psi4 1.4.1 release

                         Git: Rev {HEAD} cd00f19


    D. G. A. Smith, L. A. Burns, A. C. Simmonett, R. M. Parrish,
    M. C. Schieber, R. Galvelis, P. Kraus, H. Kruse, R. Di Remigio,
    A. Alenaizan, A. M. James, S. Lehtola, J. P. Misiewicz, M. Scheurer,
    R. A. Shaw, J. B. Schriber, Y. Xie, Z. L. Glick, D. A. Sirianni,
    J. S. O'Brien, J. M. Waldrop, A. Kumar, E. G. Hohenstein,
    B. P. Pritchard, B. R. Brooks, H. F. Schaefer III, A. Yu. Sokolov,
    K. Patkowski, A. E. DePrince III, U. Bozkaya, R. A. King,
    F. A. Evangelista, J. M. Turney, T. D. Crawford, C. D. Sherrill,
    J. Chem. Phys. 152(18) 184108 (2020). https://doi.org/10.1063/5.0006002

                            Additional Code Authors
    E. T. Seidl, C. L. Janssen, E. F. Valeev, M. L. Leininger,
    J. F. Gonthier, R. M. Richard, H. R. McAlexander, M. Saitow, X. Wang,
    P. Verma, and M. H. Lechner

             Previous Authors, Complete List of Code Contributors,
                       and Citations for Specific Modules
    https://github.com/psi4/psi4/blob/master/codemeta.json
    https://github.com/psi4/psi4/graphs/contributors
    http://psicode.org/psi4manual/master/introduction.html#citing-psifour

    -----------------------------------------------------------------------


    Psi4 started on: Monday, 29 November 2021 04:10PM

    Process ID: 429641
    Host:       atl1-1-01-013-14-l.pace.gatech.edu
    PSIDATADIR: /storage/home/hhive1/csargent30/data/miniconda3/envs/psi4/share/psi4
    Memory:     500.0 MiB
    Threads:    2

  ==> Input File <==

--------------------------------------------------------------------------
# PSI4 file produced by CrystaLattE

# Generated from:               pyrazine.xyz
# Psithon input for N-mer:      2mer-0+398
# Number of atoms per monomer:  [10, 10]
# Number of replicas:           4
# COM priority:                 1.456219296532e-05
# Minimum COM separations:      21.670
# Separation priority:          2.265321425811e-05
# Minimum monomer separations:  18.702
# Cutoff priority:              6.409730604183e-07
# Nuclear repulsion energy:     468.13865998941696

memory 7 GB

molecule Dimer_0_398 {
  N           -1.33084758       0.98032658       0.42627037
  N            3.95377333       0.98032658       0.42627037
  H            3.56713674       4.35218569      -0.94230973
  H           -0.94421098       4.35218569      -0.94230973
  H           -0.94421098      -2.39153253       1.79485047
  H            3.56713674      -2.39153253       1.79485047
  C            2.62292576       2.94097974      -0.42627037
  C            0.00000000       2.94097974      -0.42627037
  C            0.00000000      -0.98032658       1.27881112
  C            2.62292576      -0.98032658       1.27881112
--
  N          -18.95329959      12.03560236     -34.84641262
  N          -13.66867868      12.03560236     -34.84641262
  H          -14.05531527      15.40746147     -36.21499272
  H          -18.56666299      15.40746147     -36.21499272
  H          -18.56666299       8.66374325     -33.47783252
  H          -14.05531527       8.66374325     -33.47783252
  C          -14.99952625      13.99625552     -35.69895337
  C          -17.62245201      13.99625552     -35.69895337
  C          -17.62245201      10.07494920     -33.99387187
  C          -14.99952625      10.07494920     -33.99387187
units = au
no_com
no_reorient
}

set {
  e_convergence 10
  d_convergence 10
  scf_type df
  mp2_type df
  cc_type df
  freeze_core true
}

energy('sapt0/aug-cc-pvdz')

--------------------------------------------------------------------------

  Memory set to   6.519 GiB by Python driver.

Scratch directory: /tmp/

Scratch directory: /tmp/

  //>>>>>>>>>>>>>>>>>>>>>>>>>>>>>>>>>>>//
  //              Dimer HF             //
  //<<<<<<<<<<<<<<<<<<<<<<<<<<<<<<<<<<<//


*** tstart() called on atl1-1-01-013-14-l.pace.gatech.edu
*** at Mon Nov 29 16:10:41 2021

   => Loading Basis Set <=

    Name: AUG-CC-PVDZ
    Role: ORBITAL
    Keyword: BASIS
    atoms 1-2, 11-12  entry N          line   218 file /storage/home/hhive1/csargent30/data/miniconda3/envs/psi4/share/psi4/basis/aug-cc-pvdz.gbs
    atoms 3-6, 13-16  entry H          line    40 file /storage/home/hhive1/csargent30/data/miniconda3/envs/psi4/share/psi4/basis/aug-cc-pvdz.gbs
    atoms 7-10, 17-20 entry C          line   182 file /storage/home/hhive1/csargent30/data/miniconda3/envs/psi4/share/psi4/basis/aug-cc-pvdz.gbs


         ---------------------------------------------------------
                                   SCF
               by Justin Turney, Rob Parrish, Andy Simmonett
                          and Daniel G. A. Smith
                              RHF Reference
                        2 Threads,   6675 MiB Core
         ---------------------------------------------------------

  ==> Geometry <==

    Molecular point group: c1
    Full point group: C1

    Geometry (in Bohr), charge = 0, multiplicity = 1:

       Center              X                  Y                   Z               Mass
    ------------   -----------------  -----------------  -----------------  -----------------
         N           -1.330847580000     0.980326580000     0.426270370000    14.003074004430
         N            3.953773330000     0.980326580000     0.426270370000    14.003074004430
         H            3.567136740000     4.352185690000    -0.942309730000     1.007825032230
         H           -0.944210980000     4.352185690000    -0.942309730000     1.007825032230
         H           -0.944210980000    -2.391532530000     1.794850470000     1.007825032230
         H            3.567136740000    -2.391532530000     1.794850470000     1.007825032230
         C            2.622925760000     2.940979740000    -0.426270370000    12.000000000000
         C            0.000000000000     2.940979740000    -0.426270370000    12.000000000000
         C            0.000000000000    -0.980326580000     1.278811120000    12.000000000000
         C            2.622925760000    -0.980326580000     1.278811120000    12.000000000000
         N          -18.953299590000    12.035602360000   -34.846412620000    14.003074004430
         N          -13.668678680000    12.035602360000   -34.846412620000    14.003074004430
         H          -14.055315270000    15.407461470000   -36.214992720000     1.007825032230
         H          -18.566662990000    15.407461470000   -36.214992720000     1.007825032230
         H          -18.566662990000     8.663743250000   -33.477832520000     1.007825032230
         H          -14.055315270000     8.663743250000   -33.477832520000     1.007825032230
         C          -14.999526250000    13.996255520000   -35.698953370000    12.000000000000
         C          -17.622452010000    13.996255520000   -35.698953370000    12.000000000000
         C          -17.622452010000    10.074949200000   -33.993871870000    12.000000000000
         C          -14.999526250000    10.074949200000   -33.993871870000    12.000000000000

  Running in c1 symmetry.

  Rotational constants: A =      0.05802  B =      0.00046  C =      0.00046 [cm^-1]
  Rotational constants: A =   1739.26952  B =     13.81021  C =     13.75833 [MHz]
  Nuclear repulsion =  468.138659919500526

  Charge       = 0
  Multiplicity = 1
  Electrons    = 84
  Nalpha       = 42
  Nbeta        = 42

  ==> Algorithm <==

  SCF Algorithm Type is DF.
  DIIS enabled.
  MOM disabled.
  Fractional occupation disabled.
  Guess Type is SAD.
  Energy threshold   = 1.00e-10
  Density threshold  = 1.00e-10
  Integral threshold = 1.00e-12

  ==> Primary Basis <==

  Basis Set: AUG-CC-PVDZ
    Blend: AUG-CC-PVDZ
    Number of shells: 148
    Number of basis functions: 348
    Number of Cartesian functions: 372
    Spherical Harmonics?: true
    Max angular momentum: 2

   => Loading Basis Set <=

    Name: (AUG-CC-PVDZ AUX)
    Role: JKFIT
    Keyword: DF_BASIS_SCF
    atoms 1-2, 11-12  entry N          line   212 file /storage/home/hhive1/csargent30/data/miniconda3/envs/psi4/share/psi4/basis/aug-cc-pvdz-jkfit.gbs
    atoms 3-6, 13-16  entry H          line    70 file /storage/home/hhive1/csargent30/data/miniconda3/envs/psi4/share/psi4/basis/aug-cc-pvdz-jkfit.gbs
    atoms 7-10, 17-20 entry C          line   154 file /storage/home/hhive1/csargent30/data/miniconda3/envs/psi4/share/psi4/basis/aug-cc-pvdz-jkfit.gbs

  ==> Integral Setup <==

  ==> DiskDFJK: Density-Fitted J/K Matrices <==

    J tasked:                  Yes
    K tasked:                  Yes
    wK tasked:                  No
    OpenMP threads:              2
    Integrals threads:           2
    Memory [MiB]:             5006
    Algorithm:                Core
    Integral Cache:           SAVE
    Schwarz Cutoff:          1E-12
    Fitting Condition:       1E-10

   => Auxiliary Basis Set <=

  Basis Set: (AUG-CC-PVDZ AUX)
    Blend: AUG-CC-PVDZ-JKFIT
    Number of shells: 432
    Number of basis functions: 1288
    Number of Cartesian functions: 1492
    Spherical Harmonics?: true
    Max angular momentum: 3

  Minimum eigenvalue in the overlap matrix is 9.4898632817E-06.
  Reciprocal condition number of the overlap matrix is 7.4017822302E-07.
    Using symmetric orthogonalization.

  ==> Pre-Iterations <==

  SCF Guess: Superposition of Atomic Densities via on-the-fly atomic UHF (no occupation information).

   -------------------------
    Irrep   Nso     Nmo
   -------------------------
     A        348     348
   -------------------------
    Total     348     348
   -------------------------

  ==> Iterations <==

                           Total Energy        Delta E     RMS |[F,P]|

   @DF-RHF iter SAD:  -524.65046251109356   -5.24650e+02   0.00000e+00
   @DF-RHF iter   1:  -525.07881779929721   -4.28355e-01   1.58371e-03 DIIS
   @DF-RHF iter   2:  -525.25757847829595   -1.78761e-01   5.80762e-04 DIIS
   @DF-RHF iter   3:  -525.27724727274517   -1.96688e-02   1.81368e-04 DIIS
   @DF-RHF iter   4:  -525.27969675203065   -2.44948e-03   5.34002e-05 DIIS
   @DF-RHF iter   5:  -525.27987595092100   -1.79199e-04   1.06852e-05 DIIS
   @DF-RHF iter   6:  -525.27988905136215   -1.31004e-05   3.46853e-06 DIIS
   @DF-RHF iter   7:  -525.27989095607052   -1.90471e-06   9.05272e-07 DIIS
   @DF-RHF iter   8:  -525.27989110384010   -1.47770e-07   1.40372e-07 DIIS
   @DF-RHF iter   9:  -525.27989110780823   -3.96813e-09   2.76667e-08 DIIS
   @DF-RHF iter  10:  -525.27989110794965   -1.41426e-10   1.02078e-08 DIIS
   @DF-RHF iter  11:  -525.27989110795863   -8.98126e-12   3.43708e-09 DIIS
   @DF-RHF iter  12:  -525.27989110796068   -2.04636e-12   4.82385e-10 DIIS
   @DF-RHF iter  13:  -525.27989110795886    1.81899e-12   1.96163e-10 DIIS
   @DF-RHF iter  14:  -525.27989110796000   -1.13687e-12   5.93380e-11 DIIS
  Energy and wave function converged.


  ==> Post-Iterations <==

    Orbital Energies [Eh]
    ---------------------

    Doubly Occupied:

       1A    -15.598082     2A    -15.598082     3A    -15.598063
       4A    -15.598063     5A    -11.274248     6A    -11.274248
       7A    -11.274204     8A    -11.274204     9A    -11.272985
      10A    -11.272985    11A    -11.272979    12A    -11.272979
      13A     -1.313357    14A     -1.313357    15A     -1.224186
      16A     -1.224186    17A     -1.076813    18A     -1.076813
      19A     -0.922672    20A     -0.922672    21A     -0.919292
      22A     -0.919292    23A     -0.760647    24A     -0.760647
      25A     -0.738411    26A     -0.738411    27A     -0.706224
      28A     -0.706224    29A     -0.647697    30A     -0.647697
      31A     -0.580720    32A     -0.580720    33A     -0.574379
      34A     -0.574379    35A     -0.497123    36A     -0.497123
      37A     -0.434298    38A     -0.434298    39A     -0.415865
      40A     -0.415865    41A     -0.359934    42A     -0.359934

    Virtual:

      43A      0.034491    44A      0.034491    45A      0.040736
      46A      0.040736    47A      0.048377    48A      0.048377
      49A      0.058588    50A      0.058588    51A      0.067103
      52A      0.067103    53A      0.099410    54A      0.099410
      55A      0.100940    56A      0.100940    57A      0.114190
      58A      0.114190    59A      0.114939    60A      0.114939
      61A      0.123769    62A      0.123769    63A      0.125312
      64A      0.125312    65A      0.128655    66A      0.128655
      67A      0.132880    68A      0.132880    69A      0.158196
      70A      0.158196    71A      0.161078    72A      0.161078
      73A      0.161321    74A      0.161321    75A      0.163907
      76A      0.163907    77A      0.175173    78A      0.175173
      79A      0.186908    80A      0.186908    81A      0.203899
      82A      0.203899    83A      0.212527    84A      0.212527
      85A      0.250506    86A      0.250506    87A      0.267746
      88A      0.267746    89A      0.278046    90A      0.278046
      91A      0.287801    92A      0.287801    93A      0.293198
      94A      0.293198    95A      0.295739    96A      0.295739
      97A      0.314824    98A      0.314824    99A      0.320447
     100A      0.320447   101A      0.355419   102A      0.355419
     103A      0.357899   104A      0.357899   105A      0.364651
     106A      0.364651   107A      0.382574   108A      0.382574
     109A      0.398883   110A      0.398883   111A      0.409887
     112A      0.409887   113A      0.425446   114A      0.425446
     115A      0.433917   116A      0.433917   117A      0.437205
     118A      0.437206   119A      0.452083   120A      0.452083
     121A      0.471473   122A      0.471474   123A      0.492130
     124A      0.492130   125A      0.504853   126A      0.504853
     127A      0.514904   128A      0.514904   129A      0.524538
     130A      0.524538   131A      0.528658   132A      0.528658
     133A      0.554568   134A      0.554568   135A      0.570526
     136A      0.570526   137A      0.587525   138A      0.587525
     139A      0.591495   140A      0.591495   141A      0.593790
     142A      0.593790   143A      0.608920   144A      0.608920
     145A      0.643508   146A      0.643508   147A      0.644312
     148A      0.644312   149A      0.685126   150A      0.685127
     151A      0.687749   152A      0.687749   153A      0.689923
     154A      0.689923   155A      0.690332   156A      0.690333
     157A      0.694820   158A      0.694820   159A      0.703821
     160A      0.703821   161A      0.746550   162A      0.746550
     163A      0.754808   164A      0.754808   165A      0.766955
     166A      0.766955   167A      0.781395   168A      0.781395
     169A      0.799806   170A      0.799806   171A      0.802700
     172A      0.802700   173A      0.819005   174A      0.819005
     175A      0.831061   176A      0.831061   177A      0.847503
     178A      0.847504   179A      0.880535   180A      0.880535
     181A      0.886401   182A      0.886401   183A      0.894672
     184A      0.894672   185A      0.929263   186A      0.929263
     187A      0.939456   188A      0.939456   189A      0.949297
     190A      0.949297   191A      0.996642   192A      0.996642
     193A      0.998898   194A      0.998898   195A      1.013005
     196A      1.013005   197A      1.033361   198A      1.033361
     199A      1.051184   200A      1.051184   201A      1.089371
     202A      1.089371   203A      1.100435   204A      1.100435
     205A      1.122189   206A      1.122189   207A      1.124034
     208A      1.124034   209A      1.134353   210A      1.134353
     211A      1.158731   212A      1.158731   213A      1.173555
     214A      1.173555   215A      1.235407   216A      1.235407
     217A      1.238795   218A      1.238795   219A      1.309664
     220A      1.309664   221A      1.331138   222A      1.331138
     223A      1.414273   224A      1.414273   225A      1.451516
     226A      1.451516   227A      1.486127   228A      1.486127
     229A      1.488065   230A      1.488065   231A      1.499201
     232A      1.499201   233A      1.502836   234A      1.502836
     235A      1.518243   236A      1.518243   237A      1.572676
     238A      1.572676   239A      1.574182   240A      1.574182
     241A      1.587826   242A      1.587826   243A      1.635972
     244A      1.635972   245A      1.640495   246A      1.640495
     247A      1.648210   248A      1.648210   249A      1.676542
     250A      1.676542   251A      1.716981   252A      1.716981
     253A      1.746588   254A      1.746588   255A      1.755094
     256A      1.755094   257A      1.783752   258A      1.783752
     259A      1.815718   260A      1.815718   261A      1.893314
     262A      1.893314   263A      1.916128   264A      1.916128
     265A      1.964819   266A      1.964819   267A      1.987664
     268A      1.987664   269A      2.031193   270A      2.031193
     271A      2.091539   272A      2.091539   273A      2.101018
     274A      2.101018   275A      2.142944   276A      2.142944
     277A      2.163346   278A      2.163346   279A      2.190479
     280A      2.190479   281A      2.193292   282A      2.193292
     283A      2.200370   284A      2.200370   285A      2.202401
     286A      2.202401   287A      2.227616   288A      2.227616
     289A      2.312751   290A      2.312751   291A      2.355219
     292A      2.355219   293A      2.430947   294A      2.430947
     295A      2.438967   296A      2.438967   297A      2.519369
     298A      2.519369   299A      2.522385   300A      2.522385
     301A      2.584756   302A      2.584756   303A      2.606256
     304A      2.606256   305A      2.665215   306A      2.665215
     307A      2.675399   308A      2.675399   309A      2.686385
     310A      2.686385   311A      2.713975   312A      2.713975
     313A      2.718582   314A      2.718582   315A      2.844004
     316A      2.844004   317A      2.865751   318A      2.865751
     319A      2.939186   320A      2.939186   321A      3.001846
     322A      3.001846   323A      3.017862   324A      3.017862
     325A      3.032176   326A      3.032176   327A      3.094127
     328A      3.094127   329A      3.220306   330A      3.220306
     331A      3.255970   332A      3.255970   333A      3.284870
     334A      3.284870   335A      3.366130   336A      3.366130
     337A      3.413358   338A      3.413358   339A      3.514910
     340A      3.514910   341A      3.590645   342A      3.590645
     343A      3.627759   344A      3.627759   345A      3.977227
     346A      3.977227   347A      4.253475   348A      4.253475

    Final Occupation by Irrep:
              A
    DOCC [    42 ]

  @DF-RHF Final Energy:  -525.27989110796000

   => Energetics <=

    Nuclear Repulsion Energy =            468.1386599195005260
    One-Electron Energy =               -1636.9883937025010709
    Two-Electron Energy =                 643.5698426750406043
    Total Energy =                       -525.2798911079599975

Computation Completed


Properties will be evaluated at   0.000000,   0.000000,   0.000000 [a0]

Properties computed using the SCF density matrix

  Nuclear Dipole Moment: [e a0]
     X:  -629.9801      Y:   546.6690      Z: -1445.6460

  Electronic Dipole Moment: [e a0]
     X:   629.9801      Y:  -546.6690      Z:  1445.6460

  Dipole Moment: [e a0]
     X:     0.0000      Y:     0.0000      Z:     0.0000     Total:     0.0000

  Dipole Moment: [D]
     X:     0.0000      Y:     0.0000      Z:     0.0000     Total:     0.0000


*** tstop() called on atl1-1-01-013-14-l.pace.gatech.edu at Mon Nov 29 16:10:55 2021
Module time:
	user time   =      25.25 seconds =       0.42 minutes
	system time =       0.99 seconds =       0.02 minutes
	total time  =         14 seconds =       0.23 minutes
Total time:
	user time   =      25.25 seconds =       0.42 minutes
	system time =       0.99 seconds =       0.02 minutes
	total time  =         14 seconds =       0.23 minutes

  //>>>>>>>>>>>>>>>>>>>>>>>>>>>>>>>>>>>//
  //            Monomer A HF           //
  //<<<<<<<<<<<<<<<<<<<<<<<<<<<<<<<<<<<//


*** tstart() called on atl1-1-01-013-14-l.pace.gatech.edu
*** at Mon Nov 29 16:10:55 2021

   => Loading Basis Set <=

    Name: AUG-CC-PVDZ
    Role: ORBITAL
    Keyword: BASIS
    atoms 1-2, 11-12  entry N          line   218 file /storage/home/hhive1/csargent30/data/miniconda3/envs/psi4/share/psi4/basis/aug-cc-pvdz.gbs
    atoms 3-6, 13-16  entry H          line    40 file /storage/home/hhive1/csargent30/data/miniconda3/envs/psi4/share/psi4/basis/aug-cc-pvdz.gbs
    atoms 7-10, 17-20 entry C          line   182 file /storage/home/hhive1/csargent30/data/miniconda3/envs/psi4/share/psi4/basis/aug-cc-pvdz.gbs


         ---------------------------------------------------------
                                   SCF
               by Justin Turney, Rob Parrish, Andy Simmonett
                          and Daniel G. A. Smith
                              RHF Reference
                        2 Threads,   6675 MiB Core
         ---------------------------------------------------------

  ==> Geometry <==

    Molecular point group: c1
    Full point group: C1

    Geometry (in Bohr), charge = 0, multiplicity = 1:

       Center              X                  Y                   Z               Mass
    ------------   -----------------  -----------------  -----------------  -----------------
         N           -1.330847580000     0.980326580000     0.426270370000    14.003074004430
         N            3.953773330000     0.980326580000     0.426270370000    14.003074004430
         H            3.567136740000     4.352185690000    -0.942309730000     1.007825032230
         H           -0.944210980000     4.352185690000    -0.942309730000     1.007825032230
         H           -0.944210980000    -2.391532530000     1.794850470000     1.007825032230
         H            3.567136740000    -2.391532530000     1.794850470000     1.007825032230
         C            2.622925760000     2.940979740000    -0.426270370000    12.000000000000
         C            0.000000000000     2.940979740000    -0.426270370000    12.000000000000
         C            0.000000000000    -0.980326580000     1.278811120000    12.000000000000
         C            2.622925760000    -0.980326580000     1.278811120000    12.000000000000
      Gh(N)         -18.953299590000    12.035602360000   -34.846412620000    14.003074004430
      Gh(N)         -13.668678680000    12.035602360000   -34.846412620000    14.003074004430
      Gh(H)         -14.055315270000    15.407461470000   -36.214992720000     1.007825032230
      Gh(H)         -18.566662990000    15.407461470000   -36.214992720000     1.007825032230
      Gh(H)         -18.566662990000     8.663743250000   -33.477832520000     1.007825032230
      Gh(H)         -14.055315270000     8.663743250000   -33.477832520000     1.007825032230
      Gh(C)         -14.999526250000    13.996255520000   -35.698953370000    12.000000000000
      Gh(C)         -17.622452010000    13.996255520000   -35.698953370000    12.000000000000
      Gh(C)         -17.622452010000    10.074949200000   -33.993871870000    12.000000000000
      Gh(C)         -14.999526250000    10.074949200000   -33.993871870000    12.000000000000

  Running in c1 symmetry.

  Rotational constants: A =      0.05802  B =      0.00046  C =      0.00046 [cm^-1]
  Rotational constants: A =   1739.26952  B =     13.81021  C =     13.75833 [MHz]
  Nuclear repulsion =  212.551731110485349

  Charge       = 0
  Multiplicity = 1
  Electrons    = 42
  Nalpha       = 21
  Nbeta        = 21

  ==> Algorithm <==

  SCF Algorithm Type is DF.
  DIIS enabled.
  MOM disabled.
  Fractional occupation disabled.
  Guess Type is SAD.
  Energy threshold   = 1.00e-10
  Density threshold  = 1.00e-10
  Integral threshold = 1.00e-12

  ==> Primary Basis <==

  Basis Set: AUG-CC-PVDZ
    Blend: AUG-CC-PVDZ
    Number of shells: 148
    Number of basis functions: 348
    Number of Cartesian functions: 372
    Spherical Harmonics?: true
    Max angular momentum: 2

   => Loading Basis Set <=

    Name: (AUG-CC-PVDZ AUX)
    Role: JKFIT
    Keyword: DF_BASIS_SCF
    atoms 1-2, 11-12  entry N          line   212 file /storage/home/hhive1/csargent30/data/miniconda3/envs/psi4/share/psi4/basis/aug-cc-pvdz-jkfit.gbs
    atoms 3-6, 13-16  entry H          line    70 file /storage/home/hhive1/csargent30/data/miniconda3/envs/psi4/share/psi4/basis/aug-cc-pvdz-jkfit.gbs
    atoms 7-10, 17-20 entry C          line   154 file /storage/home/hhive1/csargent30/data/miniconda3/envs/psi4/share/psi4/basis/aug-cc-pvdz-jkfit.gbs

  ==> Integral Setup <==

  ==> DiskDFJK: Density-Fitted J/K Matrices <==

    J tasked:                  Yes
    K tasked:                  Yes
    wK tasked:                  No
    OpenMP threads:              2
    Integrals threads:           2
    Memory [MiB]:             5006
    Algorithm:                Core
    Integral Cache:           LOAD
    Schwarz Cutoff:          1E-12
    Fitting Condition:       1E-10

   => Auxiliary Basis Set <=

  Basis Set: (AUG-CC-PVDZ AUX)
    Blend: AUG-CC-PVDZ-JKFIT
    Number of shells: 432
    Number of basis functions: 1288
    Number of Cartesian functions: 1492
    Spherical Harmonics?: true
    Max angular momentum: 3

  Minimum eigenvalue in the overlap matrix is 9.4898632817E-06.
  Reciprocal condition number of the overlap matrix is 7.4017822302E-07.
    Using symmetric orthogonalization.

  ==> Pre-Iterations <==

  SCF Guess: Superposition of Atomic Densities via on-the-fly atomic UHF (no occupation information).

   -------------------------
    Irrep   Nso     Nmo
   -------------------------
     A        348     348
   -------------------------
    Total     348     348
   -------------------------

  ==> Iterations <==

                           Total Energy        Delta E     RMS |[F,P]|

   @DF-RHF iter SAD:  -262.32523125893408   -2.62325e+02   0.00000e+00
   @DF-RHF iter   1:  -262.53940798341415   -2.14177e-01   1.11985e-03 DIIS
   @DF-RHF iter   2:  -262.62878837582878   -8.93804e-02   4.10664e-04 DIIS
   @DF-RHF iter   3:  -262.63862292040182   -9.83454e-03   1.28248e-04 DIIS
   @DF-RHF iter   4:  -262.63984767367657   -1.22475e-03   3.77599e-05 DIIS
   @DF-RHF iter   5:  -262.63993727413765   -8.96005e-05   7.55558e-06 DIIS
   @DF-RHF iter   6:  -262.63994382439779   -6.55026e-06   2.45264e-06 DIIS
   @DF-RHF iter   7:  -262.63994477677102   -9.52373e-07   6.40130e-07 DIIS
   @DF-RHF iter   8:  -262.63994485065973   -7.38887e-08   9.91693e-08 DIIS
   @DF-RHF iter   9:  -262.63994485264487   -1.98514e-09   1.88228e-08 DIIS
   @DF-RHF iter  10:  -262.63994485271547   -7.05995e-11   3.19151e-09 DIIS
   @DF-RHF iter  11:  -262.63994485271780   -2.33058e-12   5.22317e-10 DIIS
   @DF-RHF iter  12:  -262.63994485271826   -4.54747e-13   9.54330e-11 DIIS
  Energy and wave function converged.


  ==> Post-Iterations <==

    Orbital Energies [Eh]
    ---------------------

    Doubly Occupied:

       1A    -15.598072     2A    -15.598053     3A    -11.274239
       4A    -11.274194     5A    -11.272975     6A    -11.272969
       7A     -1.313347     8A     -1.224176     9A     -1.076803
      10A     -0.922662    11A     -0.919282    12A     -0.760637
      13A     -0.738402    14A     -0.706214    15A     -0.647687
      16A     -0.580711    17A     -0.574369    18A     -0.497113
      19A     -0.434288    20A     -0.415855    21A     -0.359924

    Virtual:

      22A      0.022351    23A      0.034497    24A      0.039430
      25A      0.040739    26A      0.041096    27A      0.048384
      28A      0.058591    29A      0.058771    30A      0.067113
      31A      0.079595    32A      0.084968    33A      0.099419
      34A      0.100948    35A      0.103913    36A      0.108425
      37A      0.108769    38A      0.114201    39A      0.114951
      40A      0.122414    41A      0.123776    42A      0.125322
      43A      0.125507    44A      0.128661    45A      0.130858
      46A      0.132889    47A      0.134069    48A      0.152024
      49A      0.152943    50A      0.158199    51A      0.159258
      52A      0.161084    53A      0.161326    54A      0.163914
      55A      0.175179    56A      0.176663    57A      0.186918
      58A      0.197715    59A      0.203819    60A      0.203908
      61A      0.206576    62A      0.212538    63A      0.222299
      64A      0.233526    65A      0.239353    66A      0.250517
      67A      0.255133    68A      0.267756    69A      0.270692
      70A      0.278056    71A      0.287812    72A      0.293207
      73A      0.295749    74A      0.302240    75A      0.314832
      76A      0.320457    77A      0.320554    78A      0.328074
      79A      0.331216    80A      0.344033    81A      0.355428
      82A      0.357908    83A      0.364661    84A      0.380414
      85A      0.382583    86A      0.385550    87A      0.398891
      88A      0.401186    89A      0.409895    90A      0.419186
      91A      0.424864    92A      0.425453    93A      0.433925
      94A      0.437212    95A      0.441847    96A      0.452092
      97A      0.460570    98A      0.461018    99A      0.471483
     100A      0.476000   101A      0.478734   102A      0.492140
     103A      0.504862   104A      0.507738   105A      0.514914
     106A      0.523681   107A      0.524547   108A      0.528668
     109A      0.535647   110A      0.554577   111A      0.557759
     112A      0.561429   113A      0.564409   114A      0.570535
     115A      0.581820   116A      0.587535   117A      0.591506
     118A      0.593799   119A      0.595925   120A      0.608929
     121A      0.615054   122A      0.620073   123A      0.636278
     124A      0.643517   125A      0.644321   126A      0.649270
     127A      0.651404   128A      0.679328   129A      0.685136
     130A      0.685230   131A      0.687758   132A      0.689932
     133A      0.690342   134A      0.694828   135A      0.703829
     136A      0.719805   137A      0.728306   138A      0.746558
     139A      0.746702   140A      0.754817   141A      0.766965
     142A      0.775595   143A      0.781406   144A      0.793546
     145A      0.799815   146A      0.802710   147A      0.811007
     148A      0.811893   149A      0.819016   150A      0.824665
     151A      0.831071   152A      0.847513   153A      0.847975
     154A      0.849098   155A      0.868520   156A      0.880544
     157A      0.886410   158A      0.888063   159A      0.894682
     160A      0.906017   161A      0.929027   162A      0.929272
     163A      0.939466   164A      0.947605   165A      0.949307
     166A      0.970694   167A      0.976847   168A      0.986549
     169A      0.996652   170A      0.998908   171A      1.013015
     172A      1.032334   173A      1.033370   174A      1.046843
     175A      1.051194   176A      1.076178   177A      1.089381
     178A      1.090190   179A      1.100445   180A      1.122199
     181A      1.124044   182A      1.130576   183A      1.134362
     184A      1.140178   185A      1.158741   186A      1.168502
     187A      1.170590   188A      1.173565   189A      1.192120
     190A      1.193153   191A      1.200385   192A      1.222231
     193A      1.235416   194A      1.238804   195A      1.250941
     196A      1.307469   197A      1.309674   198A      1.318173
     199A      1.326327   200A      1.329523   201A      1.331148
     202A      1.346720   203A      1.389129   204A      1.414282
     205A      1.448302   206A      1.451526   207A      1.455372
     208A      1.479047   209A      1.486137   210A      1.487118
     211A      1.488075   212A      1.499211   213A      1.502846
     214A      1.518252   215A      1.572686   216A      1.574192
     217A      1.587836   218A      1.635982   219A      1.640505
     220A      1.648219   221A      1.659155   222A      1.676552
     223A      1.697980   224A      1.716991   225A      1.746597
     226A      1.755104   227A      1.783762   228A      1.815727
     229A      1.893323   230A      1.916137   231A      1.964829
     232A      1.987674   233A      2.031202   234A      2.070143
     235A      2.091548   236A      2.101028   237A      2.102680
     238A      2.119360   239A      2.142953   240A      2.156592
     241A      2.159105   242A      2.163356   243A      2.190488
     244A      2.193301   245A      2.194776   246A      2.200380
     247A      2.202410   248A      2.227626   249A      2.234690
     250A      2.241119   251A      2.249576   252A      2.309931
     253A      2.312761   254A      2.319462   255A      2.355229
     256A      2.384721   257A      2.419125   258A      2.430957
     259A      2.435329   260A      2.438082   261A      2.438977
     262A      2.472592   263A      2.486640   264A      2.498237
     265A      2.519379   266A      2.522395   267A      2.524984
     268A      2.545911   269A      2.568244   270A      2.584766
     271A      2.592289   272A      2.606266   273A      2.625889
     274A      2.665224   275A      2.675409   276A      2.686395
     277A      2.713985   278A      2.716814   279A      2.718591
     280A      2.726567   281A      2.767850   282A      2.844014
     283A      2.865761   284A      2.903953   285A      2.939196
     286A      2.947143   287A      2.955667   288A      2.973257
     289A      3.001855   290A      3.017872   291A      3.032186
     292A      3.058247   293A      3.065147   294A      3.094137
     295A      3.113786   296A      3.220316   297A      3.245646
     298A      3.255980   299A      3.284880   300A      3.289597
     301A      3.321878   302A      3.337657   303A      3.340404
     304A      3.348575   305A      3.351298   306A      3.366140
     307A      3.412547   308A      3.413367   309A      3.470702
     310A      3.501902   311A      3.514920   312A      3.521309
     313A      3.590655   314A      3.604384   315A      3.605591
     316A      3.627769   317A      3.700431   318A      3.818872
     319A      3.830635   320A      3.940916   321A      3.969044
     322A      3.977236   323A      4.011351   324A      4.194705
     325A      4.242198   326A      4.253485   327A      4.441936
     328A      4.546777   329A      4.579224   330A      4.867586
     331A      4.976091   332A      5.057799   333A      5.261659
     334A      5.316487   335A      5.630146   336A      5.691272
     337A      5.827095   338A      5.952581   339A      6.283776
     340A      6.306838   341A      6.453715   342A      6.631149
     343A     18.125666   344A     18.207928   345A     19.017523
     346A     19.342948   347A     25.287008   348A     25.374728

    Final Occupation by Irrep:
              A
    DOCC [    21 ]

  @DF-RHF Final Energy:  -262.63994485271826

   => Energetics <=

    Nuclear Repulsion Energy =            212.5517311104853491
    One-Electron Energy =                -775.4594096399532646
    Two-Electron Energy =                 300.2677336767496854
    Total Energy =                       -262.6399448527182585

Computation Completed


Properties will be evaluated at   0.000000,   0.000000,   0.000000 [a0]

Properties computed using the SCF density matrix

  Nuclear Dipole Moment: [e a0]
     X:    55.0814      Y:    41.1737      Z:    17.9034

  Electronic Dipole Moment: [e a0]
     X:   -55.0814      Y:   -41.1737      Z:   -17.9034

  Dipole Moment: [e a0]
     X:    -0.0000      Y:    -0.0000      Z:     0.0000     Total:     0.0000

  Dipole Moment: [D]
     X:    -0.0000      Y:    -0.0000      Z:     0.0000     Total:     0.0000


*** tstop() called on atl1-1-01-013-14-l.pace.gatech.edu at Mon Nov 29 16:11:04 2021
Module time:
	user time   =      15.62 seconds =       0.26 minutes
	system time =       0.51 seconds =       0.01 minutes
	total time  =          9 seconds =       0.15 minutes
Total time:
	user time   =      40.88 seconds =       0.68 minutes
	system time =       1.50 seconds =       0.03 minutes
	total time  =         23 seconds =       0.38 minutes

  //>>>>>>>>>>>>>>>>>>>>>>>>>>>>>>>>>>>//
  //            Monomer B HF           //
  //<<<<<<<<<<<<<<<<<<<<<<<<<<<<<<<<<<<//


*** tstart() called on atl1-1-01-013-14-l.pace.gatech.edu
*** at Mon Nov 29 16:11:04 2021

   => Loading Basis Set <=

    Name: AUG-CC-PVDZ
    Role: ORBITAL
    Keyword: BASIS
    atoms 1-2, 11-12  entry N          line   218 file /storage/home/hhive1/csargent30/data/miniconda3/envs/psi4/share/psi4/basis/aug-cc-pvdz.gbs
    atoms 3-6, 13-16  entry H          line    40 file /storage/home/hhive1/csargent30/data/miniconda3/envs/psi4/share/psi4/basis/aug-cc-pvdz.gbs
    atoms 7-10, 17-20 entry C          line   182 file /storage/home/hhive1/csargent30/data/miniconda3/envs/psi4/share/psi4/basis/aug-cc-pvdz.gbs


         ---------------------------------------------------------
                                   SCF
               by Justin Turney, Rob Parrish, Andy Simmonett
                          and Daniel G. A. Smith
                              RHF Reference
                        2 Threads,   6675 MiB Core
         ---------------------------------------------------------

  ==> Geometry <==

    Molecular point group: c1
    Full point group: C1

    Geometry (in Bohr), charge = 0, multiplicity = 1:

       Center              X                  Y                   Z               Mass
    ------------   -----------------  -----------------  -----------------  -----------------
      Gh(N)          -1.330847580000     0.980326580000     0.426270370000    14.003074004430
      Gh(N)           3.953773330000     0.980326580000     0.426270370000    14.003074004430
      Gh(H)           3.567136740000     4.352185690000    -0.942309730000     1.007825032230
      Gh(H)          -0.944210980000     4.352185690000    -0.942309730000     1.007825032230
      Gh(H)          -0.944210980000    -2.391532530000     1.794850470000     1.007825032230
      Gh(H)           3.567136740000    -2.391532530000     1.794850470000     1.007825032230
      Gh(C)           2.622925760000     2.940979740000    -0.426270370000    12.000000000000
      Gh(C)           0.000000000000     2.940979740000    -0.426270370000    12.000000000000
      Gh(C)           0.000000000000    -0.980326580000     1.278811120000    12.000000000000
      Gh(C)           2.622925760000    -0.980326580000     1.278811120000    12.000000000000
         N          -18.953299590000    12.035602360000   -34.846412620000    14.003074004430
         N          -13.668678680000    12.035602360000   -34.846412620000    14.003074004430
         H          -14.055315270000    15.407461470000   -36.214992720000     1.007825032230
         H          -18.566662990000    15.407461470000   -36.214992720000     1.007825032230
         H          -18.566662990000     8.663743250000   -33.477832520000     1.007825032230
         H          -14.055315270000     8.663743250000   -33.477832520000     1.007825032230
         C          -14.999526250000    13.996255520000   -35.698953370000    12.000000000000
         C          -17.622452010000    13.996255520000   -35.698953370000    12.000000000000
         C          -17.622452010000    10.074949200000   -33.993871870000    12.000000000000
         C          -14.999526250000    10.074949200000   -33.993871870000    12.000000000000

  Running in c1 symmetry.

  Rotational constants: A =      0.05802  B =      0.00046  C =      0.00046 [cm^-1]
  Rotational constants: A =   1739.26952  B =     13.81021  C =     13.75833 [MHz]
  Nuclear repulsion =  212.551731042300560

  Charge       = 0
  Multiplicity = 1
  Electrons    = 42
  Nalpha       = 21
  Nbeta        = 21

  ==> Algorithm <==

  SCF Algorithm Type is DF.
  DIIS enabled.
  MOM disabled.
  Fractional occupation disabled.
  Guess Type is SAD.
  Energy threshold   = 1.00e-10
  Density threshold  = 1.00e-10
  Integral threshold = 1.00e-12

  ==> Primary Basis <==

  Basis Set: AUG-CC-PVDZ
    Blend: AUG-CC-PVDZ
    Number of shells: 148
    Number of basis functions: 348
    Number of Cartesian functions: 372
    Spherical Harmonics?: true
    Max angular momentum: 2

   => Loading Basis Set <=

    Name: (AUG-CC-PVDZ AUX)
    Role: JKFIT
    Keyword: DF_BASIS_SCF
    atoms 1-2, 11-12  entry N          line   212 file /storage/home/hhive1/csargent30/data/miniconda3/envs/psi4/share/psi4/basis/aug-cc-pvdz-jkfit.gbs
    atoms 3-6, 13-16  entry H          line    70 file /storage/home/hhive1/csargent30/data/miniconda3/envs/psi4/share/psi4/basis/aug-cc-pvdz-jkfit.gbs
    atoms 7-10, 17-20 entry C          line   154 file /storage/home/hhive1/csargent30/data/miniconda3/envs/psi4/share/psi4/basis/aug-cc-pvdz-jkfit.gbs

  ==> Integral Setup <==

  ==> DiskDFJK: Density-Fitted J/K Matrices <==

    J tasked:                  Yes
    K tasked:                  Yes
    wK tasked:                  No
    OpenMP threads:              2
    Integrals threads:           2
    Memory [MiB]:             5006
    Algorithm:                Core
    Integral Cache:           LOAD
    Schwarz Cutoff:          1E-12
    Fitting Condition:       1E-10

   => Auxiliary Basis Set <=

  Basis Set: (AUG-CC-PVDZ AUX)
    Blend: AUG-CC-PVDZ-JKFIT
    Number of shells: 432
    Number of basis functions: 1288
    Number of Cartesian functions: 1492
    Spherical Harmonics?: true
    Max angular momentum: 3

  Minimum eigenvalue in the overlap matrix is 9.4898632817E-06.
  Reciprocal condition number of the overlap matrix is 7.4017822302E-07.
    Using symmetric orthogonalization.

  ==> Pre-Iterations <==

  SCF Guess: Superposition of Atomic Densities via on-the-fly atomic UHF (no occupation information).

   -------------------------
    Irrep   Nso     Nmo
   -------------------------
     A        348     348
   -------------------------
    Total     348     348
   -------------------------

  ==> Iterations <==

                           Total Energy        Delta E     RMS |[F,P]|

   @DF-RHF iter SAD:  -262.32523125163732   -2.62325e+02   0.00000e+00
   @DF-RHF iter   1:  -262.53940798210920   -2.14177e-01   1.11985e-03 DIIS
   @DF-RHF iter   2:  -262.62878837440360   -8.93804e-02   4.10664e-04 DIIS
   @DF-RHF iter   3:  -262.63862291893037   -9.83454e-03   1.28248e-04 DIIS
   @DF-RHF iter   4:  -262.63984767220433   -1.22475e-03   3.77599e-05 DIIS
   @DF-RHF iter   5:  -262.63993727266620   -8.96005e-05   7.55558e-06 DIIS
   @DF-RHF iter   6:  -262.63994382292600   -6.55026e-06   2.45264e-06 DIIS
   @DF-RHF iter   7:  -262.63994477529985   -9.52374e-07   6.40130e-07 DIIS
   @DF-RHF iter   8:  -262.63994484918788   -7.38880e-08   9.91693e-08 DIIS
   @DF-RHF iter   9:  -262.63994485117337   -1.98548e-09   1.88228e-08 DIIS
   @DF-RHF iter  10:  -262.63994485124425   -7.08837e-11   3.19151e-09 DIIS
   @DF-RHF iter  11:  -262.63994485124670   -2.44427e-12   5.22317e-10 DIIS
   @DF-RHF iter  12:  -262.63994485124636    3.41061e-13   9.54392e-11 DIIS
  Energy and wave function converged.


  ==> Post-Iterations <==

    Orbital Energies [Eh]
    ---------------------

    Doubly Occupied:

       1A    -15.598072     2A    -15.598053     3A    -11.274239
       4A    -11.274194     5A    -11.272975     6A    -11.272969
       7A     -1.313347     8A     -1.224176     9A     -1.076803
      10A     -0.922662    11A     -0.919282    12A     -0.760637
      13A     -0.738402    14A     -0.706214    15A     -0.647687
      16A     -0.580711    17A     -0.574369    18A     -0.497113
      19A     -0.434288    20A     -0.415855    21A     -0.359924

    Virtual:

      22A      0.022351    23A      0.034497    24A      0.039430
      25A      0.040739    26A      0.041096    27A      0.048384
      28A      0.058591    29A      0.058771    30A      0.067113
      31A      0.079595    32A      0.084968    33A      0.099419
      34A      0.100948    35A      0.103913    36A      0.108425
      37A      0.108769    38A      0.114201    39A      0.114951
      40A      0.122414    41A      0.123776    42A      0.125322
      43A      0.125507    44A      0.128661    45A      0.130858
      46A      0.132889    47A      0.134069    48A      0.152024
      49A      0.152943    50A      0.158199    51A      0.159258
      52A      0.161084    53A      0.161326    54A      0.163914
      55A      0.175179    56A      0.176663    57A      0.186918
      58A      0.197715    59A      0.203819    60A      0.203908
      61A      0.206576    62A      0.212538    63A      0.222299
      64A      0.233526    65A      0.239353    66A      0.250517
      67A      0.255133    68A      0.267756    69A      0.270692
      70A      0.278057    71A      0.287812    72A      0.293207
      73A      0.295749    74A      0.302240    75A      0.314832
      76A      0.320457    77A      0.320554    78A      0.328074
      79A      0.331216    80A      0.344033    81A      0.355428
      82A      0.357908    83A      0.364661    84A      0.380414
      85A      0.382583    86A      0.385550    87A      0.398891
      88A      0.401186    89A      0.409895    90A      0.419186
      91A      0.424864    92A      0.425453    93A      0.433925
      94A      0.437212    95A      0.441847    96A      0.452092
      97A      0.460570    98A      0.461018    99A      0.471483
     100A      0.476000   101A      0.478734   102A      0.492140
     103A      0.504862   104A      0.507738   105A      0.514914
     106A      0.523681   107A      0.524547   108A      0.528668
     109A      0.535647   110A      0.554577   111A      0.557759
     112A      0.561429   113A      0.564409   114A      0.570535
     115A      0.581820   116A      0.587535   117A      0.591506
     118A      0.593799   119A      0.595925   120A      0.608929
     121A      0.615054   122A      0.620073   123A      0.636278
     124A      0.643517   125A      0.644321   126A      0.649270
     127A      0.651404   128A      0.679328   129A      0.685136
     130A      0.685230   131A      0.687758   132A      0.689932
     133A      0.690342   134A      0.694828   135A      0.703829
     136A      0.719805   137A      0.728306   138A      0.746558
     139A      0.746702   140A      0.754817   141A      0.766965
     142A      0.775595   143A      0.781406   144A      0.793546
     145A      0.799815   146A      0.802710   147A      0.811007
     148A      0.811893   149A      0.819016   150A      0.824665
     151A      0.831071   152A      0.847513   153A      0.847975
     154A      0.849098   155A      0.868520   156A      0.880544
     157A      0.886410   158A      0.888063   159A      0.894682
     160A      0.906017   161A      0.929027   162A      0.929272
     163A      0.939466   164A      0.947605   165A      0.949307
     166A      0.970694   167A      0.976847   168A      0.986549
     169A      0.996652   170A      0.998908   171A      1.013015
     172A      1.032334   173A      1.033370   174A      1.046843
     175A      1.051194   176A      1.076178   177A      1.089381
     178A      1.090190   179A      1.100445   180A      1.122199
     181A      1.124044   182A      1.130576   183A      1.134362
     184A      1.140178   185A      1.158740   186A      1.168502
     187A      1.170590   188A      1.173565   189A      1.192120
     190A      1.193153   191A      1.200385   192A      1.222231
     193A      1.235416   194A      1.238804   195A      1.250941
     196A      1.307469   197A      1.309674   198A      1.318173
     199A      1.326327   200A      1.329523   201A      1.331148
     202A      1.346720   203A      1.389129   204A      1.414282
     205A      1.448302   206A      1.451526   207A      1.455372
     208A      1.479047   209A      1.486137   210A      1.487118
     211A      1.488075   212A      1.499211   213A      1.502846
     214A      1.518252   215A      1.572686   216A      1.574192
     217A      1.587836   218A      1.635982   219A      1.640505
     220A      1.648219   221A      1.659155   222A      1.676552
     223A      1.697980   224A      1.716991   225A      1.746597
     226A      1.755104   227A      1.783762   228A      1.815727
     229A      1.893323   230A      1.916137   231A      1.964829
     232A      1.987674   233A      2.031202   234A      2.070143
     235A      2.091548   236A      2.101028   237A      2.102680
     238A      2.119360   239A      2.142953   240A      2.156592
     241A      2.159105   242A      2.163355   243A      2.190488
     244A      2.193301   245A      2.194776   246A      2.200380
     247A      2.202410   248A      2.227626   249A      2.234690
     250A      2.241119   251A      2.249576   252A      2.309931
     253A      2.312761   254A      2.319462   255A      2.355229
     256A      2.384721   257A      2.419125   258A      2.430957
     259A      2.435329   260A      2.438082   261A      2.438977
     262A      2.472592   263A      2.486640   264A      2.498237
     265A      2.519379   266A      2.522395   267A      2.524984
     268A      2.545911   269A      2.568244   270A      2.584766
     271A      2.592289   272A      2.606266   273A      2.625889
     274A      2.665224   275A      2.675409   276A      2.686395
     277A      2.713985   278A      2.716814   279A      2.718591
     280A      2.726567   281A      2.767850   282A      2.844014
     283A      2.865761   284A      2.903953   285A      2.939196
     286A      2.947143   287A      2.955667   288A      2.973257
     289A      3.001855   290A      3.017872   291A      3.032186
     292A      3.058247   293A      3.065147   294A      3.094137
     295A      3.113786   296A      3.220316   297A      3.245646
     298A      3.255980   299A      3.284880   300A      3.289597
     301A      3.321878   302A      3.337657   303A      3.340404
     304A      3.348575   305A      3.351298   306A      3.366140
     307A      3.412547   308A      3.413367   309A      3.470702
     310A      3.501902   311A      3.514920   312A      3.521309
     313A      3.590655   314A      3.604384   315A      3.605591
     316A      3.627769   317A      3.700431   318A      3.818872
     319A      3.830635   320A      3.940916   321A      3.969044
     322A      3.977236   323A      4.011351   324A      4.194705
     325A      4.242198   326A      4.253485   327A      4.441936
     328A      4.546777   329A      4.579224   330A      4.867586
     331A      4.976091   332A      5.057799   333A      5.261659
     334A      5.316487   335A      5.630146   336A      5.691272
     337A      5.827095   338A      5.952581   339A      6.283776
     340A      6.306838   341A      6.453715   342A      6.631149
     343A     18.125666   344A     18.207928   345A     19.017523
     346A     19.342948   347A     25.287008   348A     25.374728

    Final Occupation by Irrep:
              A
    DOCC [    21 ]

  @DF-RHF Final Energy:  -262.63994485124636

   => Energetics <=

    Nuclear Repulsion Energy =            212.5517310423005597
    One-Electron Energy =                -775.4594095033021404
    Two-Electron Energy =                 300.2677336097551688
    Total Energy =                       -262.6399448512463550

Computation Completed


Properties will be evaluated at   0.000000,   0.000000,   0.000000 [a0]

Properties computed using the SCF density matrix

  Nuclear Dipole Moment: [e a0]
     X:  -685.0615      Y:   505.4953      Z: -1463.5493

  Electronic Dipole Moment: [e a0]
     X:   685.0615      Y:  -505.4953      Z:  1463.5493

  Dipole Moment: [e a0]
     X:     0.0000      Y:     0.0000      Z:    -0.0000     Total:     0.0000

  Dipole Moment: [D]
     X:     0.0000      Y:     0.0000      Z:    -0.0000     Total:     0.0000


*** tstop() called on atl1-1-01-013-14-l.pace.gatech.edu at Mon Nov 29 16:11:13 2021
Module time:
	user time   =      15.58 seconds =       0.26 minutes
	system time =       0.49 seconds =       0.01 minutes
	total time  =          9 seconds =       0.15 minutes
Total time:
	user time   =      56.47 seconds =       0.94 minutes
	system time =       1.99 seconds =       0.03 minutes
	total time  =         32 seconds =       0.53 minutes
  Constructing Basis Sets for SAPT...

   => Loading Basis Set <=

    Name: (AUG-CC-PVDZ AUX)
    Role: RIFIT
    Keyword: DF_BASIS_SAPT
    atoms 1-2, 11-12  entry N          line   158 file /storage/home/hhive1/csargent30/data/miniconda3/envs/psi4/share/psi4/basis/aug-cc-pvdz-ri.gbs
    atoms 3-6, 13-16  entry H          line    30 file /storage/home/hhive1/csargent30/data/miniconda3/envs/psi4/share/psi4/basis/aug-cc-pvdz-ri.gbs
    atoms 7-10, 17-20 entry C          line   112 file /storage/home/hhive1/csargent30/data/miniconda3/envs/psi4/share/psi4/basis/aug-cc-pvdz-ri.gbs


  //>>>>>>>>>>>>>>>>>>>>>>>>>>>>>>>>>>>//
  //               SAPT0               //
  //<<<<<<<<<<<<<<<<<<<<<<<<<<<<<<<<<<<//


*** tstart() called on atl1-1-01-013-14-l.pace.gatech.edu
*** at Mon Nov 29 16:11:13 2021

        SAPT0
    Ed Hohenstein
     6 June 2009

      Orbital Information
  --------------------------
    NSO        =       348
    NMO        =       348
    NRI        =      1048
    NOCC A     =        21
    NOCC B     =        21
    FOCC A     =         6
    FOCC B     =         6
    NVIR A     =       327
    NVIR B     =       327

    Elst10,r            =    -0.000001407584 [Eh]
    Exch10              =     0.000000000000 [Eh]
    Exch10 (S^2)        =     0.000000000000 [Eh]

    Iter     Energy [mEh]          dE [mEh]         Residual      Time [s]
       1      -0.00000060       0.000000602       0.008949577             1
       2      -0.00000054      -0.000000066       0.001981733             1
       3      -0.00000059       0.000000052       0.000839871             2
       4      -0.00000060       0.000000009       0.000326361             2
       5      -0.00000060      -0.000000002       0.000199968             2
       6      -0.00000059      -0.000000001       0.000064907             3
       7      -0.00000059       0.000000000       0.000023075             3
       8      -0.00000059       0.000000000       0.000006490             3
       9      -0.00000059      -0.000000000       0.000002149             4
      10      -0.00000059      -0.000000000       0.000000654             4

    CHF Iterations converged


    Iter     Energy [mEh]          dE [mEh]         Residual      Time [s]
       1      -0.00000060       0.000000602       0.008949577             1
       2      -0.00000054      -0.000000066       0.001981733             1
       3      -0.00000059       0.000000052       0.000839871             1
       4      -0.00000060       0.000000009       0.000326361             2
       5      -0.00000060      -0.000000002       0.000199968             2
       6      -0.00000059      -0.000000001       0.000064907             2
       7      -0.00000059       0.000000000       0.000023075             3
       8      -0.00000059       0.000000000       0.000006490             3
       9      -0.00000059      -0.000000000       0.000002149             4
      10      -0.00000059      -0.000000000       0.000000654             4

    CHF Iterations converged

    Ind20,r (A<-B)      =    -0.000000000595 [Eh]
    Ind20,r (B<-A)      =    -0.000000000595 [Eh]
    Ind20,r             =    -0.000000001189 [Eh]
    Exch-Ind20,r (A<-B) =     0.000000000000 [Eh]
    Exch-Ind20,r (B<-A) =     0.000000000000 [Eh]
    Exch-Ind20,r        =     0.000000000000 [Eh]
    Disp20              =    -0.000000340986 [Eh]
    Disp20 (SS)         =    -0.000000170493 [Eh]
    Disp20 (OS)         =    -0.000000170493 [Eh]
    Exch-Disp20         =     0.000000000000 [Eh]
    Exch-Disp20 (SS)    =     0.000000000000 [Eh]
    Exch-Disp20 (OS)    =     0.000000000000 [Eh]

    SAPT Results
  --------------------------------------------------------------------------------------------------------
    Electrostatics                 -0.00140758 [mEh]      -0.00088327 [kcal/mol]      -0.00369561 [kJ/mol]
      Elst10,r                     -0.00140758 [mEh]      -0.00088327 [kcal/mol]      -0.00369561 [kJ/mol]

    Exchange                        0.00000000 [mEh]       0.00000000 [kcal/mol]       0.00000000 [kJ/mol]
      Exch10                        0.00000000 [mEh]       0.00000000 [kcal/mol]       0.00000000 [kJ/mol]
      Exch10(S^2)                   0.00000000 [mEh]       0.00000000 [kcal/mol]       0.00000000 [kJ/mol]

    Induction                       0.00000359 [mEh]       0.00000225 [kcal/mol]       0.00000942 [kJ/mol]
      Ind20,r                      -0.00000119 [mEh]      -0.00000075 [kcal/mol]      -0.00000312 [kJ/mol]
      Exch-Ind20,r                  0.00000000 [mEh]       0.00000000 [kcal/mol]       0.00000000 [kJ/mol]
      delta HF,r (2)                0.00000478 [mEh]       0.00000300 [kcal/mol]       0.00001254 [kJ/mol]

    Dispersion                     -0.00034099 [mEh]      -0.00021397 [kcal/mol]      -0.00089526 [kJ/mol]
      Disp20                       -0.00034099 [mEh]      -0.00021397 [kcal/mol]      -0.00089526 [kJ/mol]
      Exch-Disp20                   0.00000000 [mEh]       0.00000000 [kcal/mol]       0.00000000 [kJ/mol]
      Disp20 (SS)                  -0.00017049 [mEh]      -0.00010699 [kcal/mol]      -0.00044763 [kJ/mol]
      Disp20 (OS)                  -0.00017049 [mEh]      -0.00010699 [kcal/mol]      -0.00044763 [kJ/mol]
      Exch-Disp20 (SS)              0.00000000 [mEh]       0.00000000 [kcal/mol]       0.00000000 [kJ/mol]
      Exch-Disp20 (OS)              0.00000000 [mEh]       0.00000000 [kcal/mol]       0.00000000 [kJ/mol]

  Total HF                         -0.00140400 [mEh]      -0.00088102 [kcal/mol]      -0.00368619 [kJ/mol]
  Total SAPT0                      -0.00174498 [mEh]      -0.00109499 [kcal/mol]      -0.00458145 [kJ/mol]

  Special recipe for scaled SAPT0 (see Manual):
    Electrostatics sSAPT0          -0.00140758 [mEh]      -0.00088327 [kcal/mol]      -0.00369561 [kJ/mol]
    Exchange sSAPT0                 0.00000000 [mEh]       0.00000000 [kcal/mol]       0.00000000 [kJ/mol]
    Induction sSAPT0                0.00000359 [mEh]       0.00000225 [kcal/mol]       0.00000942 [kJ/mol]
    Dispersion sSAPT0              -0.00034099 [mEh]      -0.00021397 [kcal/mol]      -0.00089526 [kJ/mol]
  Total sSAPT0                     -0.00174498 [mEh]      -0.00109499 [kcal/mol]      -0.00458145 [kJ/mol]
  --------------------------------------------------------------------------------------------------------

*** tstop() called on atl1-1-01-013-14-l.pace.gatech.edu at Mon Nov 29 16:11:39 2021
Module time:
	user time   =      37.58 seconds =       0.63 minutes
	system time =       8.65 seconds =       0.14 minutes
	total time  =         26 seconds =       0.43 minutes
Total time:
	user time   =      94.30 seconds =       1.57 minutes
	system time =      10.65 seconds =       0.18 minutes
	total time  =         58 seconds =       0.97 minutes


Warning! sapt0 does not have an associated derived wavefunction.The returned wavefunction is the dimer SCF wavefunction.


    Psi4 stopped on: Monday, 29 November 2021 04:11PM
    Psi4 wall time for execution: 0:00:58.81

*** Psi4 exiting successfully. Buy a developer a beer!
