
    -----------------------------------------------------------------------
          Psi4: An Open-Source Ab Initio Electronic Structure Package
                               Psi4 1.4.1 release

                         Git: Rev {HEAD} cd00f19 


    D. G. A. Smith, L. A. Burns, A. C. Simmonett, R. M. Parrish,
    M. C. Schieber, R. Galvelis, P. Kraus, H. Kruse, R. Di Remigio,
    A. Alenaizan, A. M. James, S. Lehtola, J. P. Misiewicz, M. Scheurer,
    R. A. Shaw, J. B. Schriber, Y. Xie, Z. L. Glick, D. A. Sirianni,
    J. S. O'Brien, J. M. Waldrop, A. Kumar, E. G. Hohenstein,
    B. P. Pritchard, B. R. Brooks, H. F. Schaefer III, A. Yu. Sokolov,
    K. Patkowski, A. E. DePrince III, U. Bozkaya, R. A. King,
    F. A. Evangelista, J. M. Turney, T. D. Crawford, C. D. Sherrill,
    J. Chem. Phys. 152(18) 184108 (2020). https://doi.org/10.1063/5.0006002

                            Additional Code Authors
    E. T. Seidl, C. L. Janssen, E. F. Valeev, M. L. Leininger,
    J. F. Gonthier, R. M. Richard, H. R. McAlexander, M. Saitow, X. Wang,
    P. Verma, and M. H. Lechner

             Previous Authors, Complete List of Code Contributors,
                       and Citations for Specific Modules
    https://github.com/psi4/psi4/blob/master/codemeta.json
    https://github.com/psi4/psi4/graphs/contributors
    http://psicode.org/psi4manual/master/introduction.html#citing-psifour

    -----------------------------------------------------------------------


    Psi4 started on: Monday, 29 November 2021 04:10PM

    Process ID: 438973
    Host:       atl1-1-01-013-24-l.pace.gatech.edu
    PSIDATADIR: /storage/home/hhive1/csargent30/data/miniconda3/envs/psi4/share/psi4
    Memory:     500.0 MiB
    Threads:    2
    
  ==> Input File <==

--------------------------------------------------------------------------
# PSI4 file produced by CrystaLattE

# Generated from:               pyrazine.xyz
# Psithon input for N-mer:      2mer-0+99
# Number of atoms per monomer:  [10, 10]
# Number of replicas:           2
# COM priority:                 7.346042547553e-05
# Minimum COM separations:      12.635 
# Separation priority:          7.467736706459e-05
# Minimum monomer separations:  12.566 
# Cutoff priority:              3.144744236837e-06
# Nuclear repulsion energy:     498.027416256199

memory 7 GB

molecule Dimer_0_99 {
  N           -1.33084758       0.98032658       0.42627037 
  N            3.95377333       0.98032658       0.42627037 
  H            3.56713674       4.35218569      -0.94230973 
  H           -0.94421098       4.35218569      -0.94230973 
  H           -0.94421098      -2.39153253       1.79485047 
  H            3.56713674      -2.39153253       1.79485047 
  C            2.62292576       2.94097974      -0.42627037 
  C            0.00000000       2.94097974      -0.42627037 
  C            0.00000000      -0.98032658       1.27881112 
  C            2.62292576      -0.98032658       1.27881112 
--
  N           -1.33084758     -10.07494920     -20.73733942 
  N            3.95377333     -10.07494920     -20.73733942 
  H            3.56713674      -6.70309009     -22.10591952 
  H           -0.94421098      -6.70309009     -22.10591952 
  H           -0.94421098     -13.44680831     -19.36875932 
  H            3.56713674     -13.44680831     -19.36875932 
  C            2.62292576      -8.11429604     -21.58988017 
  C            0.00000000      -8.11429604     -21.58988017 
  C            0.00000000     -12.03560236     -19.88479867 
  C            2.62292576     -12.03560236     -19.88479867 
units = au
no_com
no_reorient
}

set {
  e_convergence 10
  d_convergence 10
  scf_type df
  mp2_type df
  cc_type df
  freeze_core true
}

energy('sapt0/aug-cc-pvdz')

--------------------------------------------------------------------------

  Memory set to   6.519 GiB by Python driver.

Scratch directory: /tmp/

Scratch directory: /tmp/

  //>>>>>>>>>>>>>>>>>>>>>>>>>>>>>>>>>>>//
  //              Dimer HF             //
  //<<<<<<<<<<<<<<<<<<<<<<<<<<<<<<<<<<<//


*** tstart() called on atl1-1-01-013-24-l.pace.gatech.edu
*** at Mon Nov 29 16:10:41 2021

   => Loading Basis Set <=

    Name: AUG-CC-PVDZ
    Role: ORBITAL
    Keyword: BASIS
    atoms 1-2, 11-12  entry N          line   218 file /storage/home/hhive1/csargent30/data/miniconda3/envs/psi4/share/psi4/basis/aug-cc-pvdz.gbs 
    atoms 3-6, 13-16  entry H          line    40 file /storage/home/hhive1/csargent30/data/miniconda3/envs/psi4/share/psi4/basis/aug-cc-pvdz.gbs 
    atoms 7-10, 17-20 entry C          line   182 file /storage/home/hhive1/csargent30/data/miniconda3/envs/psi4/share/psi4/basis/aug-cc-pvdz.gbs 


         ---------------------------------------------------------
                                   SCF
               by Justin Turney, Rob Parrish, Andy Simmonett
                          and Daniel G. A. Smith
                              RHF Reference
                        2 Threads,   6675 MiB Core
         ---------------------------------------------------------

  ==> Geometry <==

    Molecular point group: c1
    Full point group: C1

    Geometry (in Bohr), charge = 0, multiplicity = 1:

       Center              X                  Y                   Z               Mass       
    ------------   -----------------  -----------------  -----------------  -----------------
         N           -1.330847580000     0.980326580000     0.426270370000    14.003074004430
         N            3.953773330000     0.980326580000     0.426270370000    14.003074004430
         H            3.567136740000     4.352185690000    -0.942309730000     1.007825032230
         H           -0.944210980000     4.352185690000    -0.942309730000     1.007825032230
         H           -0.944210980000    -2.391532530000     1.794850470000     1.007825032230
         H            3.567136740000    -2.391532530000     1.794850470000     1.007825032230
         C            2.622925760000     2.940979740000    -0.426270370000    12.000000000000
         C            0.000000000000     2.940979740000    -0.426270370000    12.000000000000
         C            0.000000000000    -0.980326580000     1.278811120000    12.000000000000
         C            2.622925760000    -0.980326580000     1.278811120000    12.000000000000
         N           -1.330847580000   -10.074949200000   -20.737339420000    14.003074004430
         N            3.953773330000   -10.074949200000   -20.737339420000    14.003074004430
         H            3.567136740000    -6.703090090000   -22.105919520000     1.007825032230
         H           -0.944210980000    -6.703090090000   -22.105919520000     1.007825032230
         H           -0.944210980000   -13.446808310000   -19.368759320000     1.007825032230
         H            3.567136740000   -13.446808310000   -19.368759320000     1.007825032230
         C            2.622925760000    -8.114296040000   -21.589880170000    12.000000000000
         C            0.000000000000    -8.114296040000   -21.589880170000    12.000000000000
         C            0.000000000000   -12.035602360000   -19.884798670000    12.000000000000
         C            2.622925760000   -12.035602360000   -19.884798670000    12.000000000000

  Running in c1 symmetry.

  Rotational constants: A =      0.04543  B =      0.00139  C =      0.00138 [cm^-1]
  Rotational constants: A =   1361.84115  B =     41.69965  C =     41.48746 [MHz]
  Nuclear repulsion =  498.027416193693739

  Charge       = 0
  Multiplicity = 1
  Electrons    = 84
  Nalpha       = 42
  Nbeta        = 42

  ==> Algorithm <==

  SCF Algorithm Type is DF.
  DIIS enabled.
  MOM disabled.
  Fractional occupation disabled.
  Guess Type is SAD.
  Energy threshold   = 1.00e-10
  Density threshold  = 1.00e-10
  Integral threshold = 1.00e-12

  ==> Primary Basis <==

  Basis Set: AUG-CC-PVDZ
    Blend: AUG-CC-PVDZ
    Number of shells: 148
    Number of basis functions: 348
    Number of Cartesian functions: 372
    Spherical Harmonics?: true
    Max angular momentum: 2

   => Loading Basis Set <=

    Name: (AUG-CC-PVDZ AUX)
    Role: JKFIT
    Keyword: DF_BASIS_SCF
    atoms 1-2, 11-12  entry N          line   212 file /storage/home/hhive1/csargent30/data/miniconda3/envs/psi4/share/psi4/basis/aug-cc-pvdz-jkfit.gbs 
    atoms 3-6, 13-16  entry H          line    70 file /storage/home/hhive1/csargent30/data/miniconda3/envs/psi4/share/psi4/basis/aug-cc-pvdz-jkfit.gbs 
    atoms 7-10, 17-20 entry C          line   154 file /storage/home/hhive1/csargent30/data/miniconda3/envs/psi4/share/psi4/basis/aug-cc-pvdz-jkfit.gbs 

  ==> Integral Setup <==

  ==> DiskDFJK: Density-Fitted J/K Matrices <==

    J tasked:                  Yes
    K tasked:                  Yes
    wK tasked:                  No
    OpenMP threads:              2
    Integrals threads:           2
    Memory [MiB]:             5006
    Algorithm:                Core
    Integral Cache:           SAVE
    Schwarz Cutoff:          1E-12
    Fitting Condition:       1E-10

   => Auxiliary Basis Set <=

  Basis Set: (AUG-CC-PVDZ AUX)
    Blend: AUG-CC-PVDZ-JKFIT
    Number of shells: 432
    Number of basis functions: 1288
    Number of Cartesian functions: 1492
    Spherical Harmonics?: true
    Max angular momentum: 3

  Minimum eigenvalue in the overlap matrix is 9.4493575885E-06.
  Reciprocal condition number of the overlap matrix is 7.3701285391E-07.
    Using symmetric orthogonalization.

  ==> Pre-Iterations <==

  SCF Guess: Superposition of Atomic Densities via on-the-fly atomic UHF (no occupation information).

   -------------------------
    Irrep   Nso     Nmo    
   -------------------------
     A        348     348 
   -------------------------
    Total     348     348
   -------------------------

  ==> Iterations <==

                           Total Energy        Delta E     RMS |[F,P]|

   @DF-RHF iter SAD:  -524.65046253019045   -5.24650e+02   0.00000e+00 
   @DF-RHF iter   1:  -525.07880071750901   -4.28338e-01   1.58374e-03 DIIS
   @DF-RHF iter   2:  -525.25756159250579   -1.78761e-01   5.80830e-04 DIIS
   @DF-RHF iter   3:  -525.27723426604109   -1.96727e-02   1.81381e-04 DIIS
   @DF-RHF iter   4:  -525.27968403920477   -2.44977e-03   5.33985e-05 DIIS
   @DF-RHF iter   5:  -525.27986322368395   -1.79184e-04   1.06873e-05 DIIS
   @DF-RHF iter   6:  -525.27987632595296   -1.31023e-05   3.46904e-06 DIIS
   @DF-RHF iter   7:  -525.27987823111050   -1.90516e-06   9.05476e-07 DIIS
   @DF-RHF iter   8:  -525.27987837894568   -1.47835e-07   1.40378e-07 DIIS
   @DF-RHF iter   9:  -525.27987838291824   -3.97256e-09   2.70032e-08 DIIS
   @DF-RHF iter  10:  -525.27987838306080   -1.42563e-10   6.23071e-09 DIIS
   @DF-RHF iter  11:  -525.27987838306535   -4.54747e-12   2.87568e-09 DIIS
   @DF-RHF iter  12:  -525.27987838306603   -6.82121e-13   5.89621e-10 DIIS
   @DF-RHF iter  13:  -525.27987838306672   -6.82121e-13   1.76232e-10 DIIS
   @DF-RHF iter  14:  -525.27987838306672    0.00000e+00   4.51397e-11 DIIS
  Energy and wave function converged.


  ==> Post-Iterations <==

    Orbital Energies [Eh]
    ---------------------

    Doubly Occupied:                                                      

       1A    -15.597958     2A    -15.597958     3A    -15.597940  
       4A    -15.597940     5A    -11.274129     6A    -11.274129  
       7A    -11.274084     8A    -11.274083     9A    -11.272866  
      10A    -11.272866    11A    -11.272857    12A    -11.272857  
      13A     -1.313234    14A     -1.313234    15A     -1.224062  
      16A     -1.224062    17A     -1.076693    18A     -1.076693  
      19A     -0.922552    20A     -0.922552    21A     -0.919174  
      22A     -0.919173    23A     -0.760526    24A     -0.760526  
      25A     -0.738295    26A     -0.738295    27A     -0.706102  
      28A     -0.706102    29A     -0.647579    30A     -0.647579  
      31A     -0.580602    32A     -0.580602    33A     -0.574255  
      34A     -0.574255    35A     -0.496997    36A     -0.496997  
      37A     -0.434172    38A     -0.434172    39A     -0.415742  
      40A     -0.415742    41A     -0.359814    42A     -0.359814  

    Virtual:                                                              

      43A      0.033913    44A      0.035223    45A      0.040375  
      46A      0.041221    47A      0.047896    48A      0.049056  
      49A      0.058339    50A      0.058997    51A      0.067081  
      52A      0.067368    53A      0.099514    54A      0.099546  
      55A      0.101032    56A      0.101063    57A      0.114094  
      58A      0.114525    59A      0.114664    60A      0.115458  
      61A      0.123794    62A      0.123979    63A      0.125076  
      64A      0.125803    65A      0.128692    66A      0.128794  
      67A      0.132854    68A      0.133114    69A      0.157109  
      70A      0.159087    71A      0.159696    72A      0.161190  
      73A      0.161615    74A      0.162805    75A      0.163128  
      76A      0.165285    77A      0.174850    78A      0.175687  
      79A      0.186928    80A      0.187151    81A      0.203907  
      82A      0.204135    83A      0.212525    84A      0.212817  
      85A      0.250137    86A      0.251156    87A      0.267517  
      88A      0.268273    89A      0.277912    90A      0.278433  
      91A      0.287600    92A      0.288266    93A      0.293307  
      94A      0.293318    95A      0.295864    96A      0.295889  
      97A      0.314904    98A      0.314958    99A      0.320362  
     100A      0.320793   101A      0.355457   102A      0.355611  
     103A      0.357974   104A      0.358050   105A      0.364403  
     106A      0.365153   107A      0.381983   108A      0.383434  
     109A      0.398357   110A      0.399669   111A      0.409608  
     112A      0.410383   113A      0.425186   114A      0.425916  
     115A      0.433893   116A      0.434088   117A      0.436580  
     118A      0.438147   119A      0.451954   120A      0.452456  
     121A      0.471555   122A      0.471633   123A      0.492188  
     124A      0.492310   125A      0.504888   126A      0.505037  
     127A      0.515026   128A      0.515027   129A      0.524640  
     130A      0.524664   131A      0.527706   132A      0.529921  
     133A      0.554608   134A      0.554769   135A      0.570448  
     136A      0.570855   137A      0.587642   138A      0.587657  
     139A      0.591589   140A      0.591658   141A      0.593877  
     142A      0.593948   143A      0.609009   144A      0.609055  
     145A      0.643582   146A      0.643675   147A      0.644321  
     148A      0.644525   149A      0.685244   150A      0.685249  
     151A      0.687652   152A      0.688026   153A      0.689684  
     154A      0.690309   155A      0.690494   156A      0.690601  
     157A      0.694889   158A      0.694968   159A      0.703722  
     160A      0.704154   161A      0.746556   162A      0.746758  
     163A      0.754918   164A      0.754923   165A      0.766944  
     166A      0.767217   167A      0.781272   168A      0.781788  
     169A      0.799884   170A      0.799951   171A      0.802800  
     172A      0.802853   173A      0.819111   174A      0.819159  
     175A      0.831150   176A      0.831225   177A      0.847422  
     178A      0.847827   179A      0.880555   180A      0.880755  
     181A      0.886499   182A      0.886533   183A      0.894758  
     184A      0.894835   185A      0.929358   186A      0.929392  
     187A      0.939272   188A      0.939912   189A      0.949188  
     190A      0.949645   191A      0.996726   192A      0.996804  
     193A      0.998979   194A      0.999070   195A      1.013117  
     196A      1.013147   197A      1.033441   198A      1.033519  
     199A      1.051284   200A      1.051327   201A      1.089492  
     202A      1.089500   203A      1.100556   204A      1.100561  
     205A      1.122068   206A      1.122554   207A      1.124157  
     208A      1.124162   209A      1.134249   210A      1.134708  
     211A      1.158622   212A      1.159088   213A      1.173651  
     214A      1.173703   215A      1.235480   216A      1.235577  
     217A      1.238873   218A      1.238948   219A      1.309752  
     220A      1.309818   221A      1.331258   222A      1.331266  
     223A      1.414350   224A      1.414432   225A      1.451606  
     226A      1.451677   227A      1.486250   228A      1.486252  
     229A      1.488156   230A      1.488221   231A      1.499148  
     232A      1.499487   233A      1.502863   234A      1.503069  
     235A      1.518288   236A      1.518424   237A      1.572762  
     238A      1.572807   239A      1.573559   240A      1.575022  
     241A      1.587175   242A      1.588855   243A      1.636020  
     244A      1.636168   245A      1.640605   246A      1.640618  
     247A      1.648105   248A      1.648565   249A      1.676652  
     250A      1.676672   251A      1.717105   252A      1.717108  
     253A      1.746684   254A      1.746735   255A      1.755204  
     256A      1.755226   257A      1.783549   258A      1.784224  
     259A      1.815836   260A      1.815838   261A      1.893427  
     262A      1.893436   263A      1.916201   264A      1.916292  
     265A      1.964802   266A      1.965081   267A      1.987765  
     268A      1.987812   269A      2.031257   270A      2.031368  
     271A      2.091625   272A      2.091692   273A      2.100968  
     274A      2.101311   275A      2.143005   276A      2.143124  
     277A      2.163438   278A      2.163494   279A      2.190587  
     280A      2.190604   281A      2.193277   282A      2.193546  
     283A      2.200485   284A      2.200490   285A      2.202475  
     286A      2.202563   287A      2.227705   288A      2.227771  
     289A      2.312599   290A      2.313160   291A      2.355305  
     292A      2.355369   293A      2.431053   294A      2.431086  
     295A      2.438961   296A      2.439222   297A      2.519488  
     298A      2.519488   299A      2.522498   300A      2.522509  
     301A      2.584751   302A      2.585018   303A      2.606377  
     304A      2.606381   305A      2.665327   306A      2.665342  
     307A      2.675486   308A      2.675564   309A      2.686498  
     310A      2.686523   311A      2.713821   312A      2.714392  
     313A      2.718655   314A      2.718746   315A      2.844128  
     316A      2.844129   317A      2.865868   318A      2.865880  
     319A      2.939292   320A      2.939322   321A      3.001954  
     322A      3.001975   323A      3.017982   324A      3.017988  
     325A      3.032286   326A      3.032313   327A      3.094229  
     328A      3.094262   329A      3.220167   330A      3.220694  
     331A      3.256087   332A      3.256090   333A      3.284908  
     334A      3.285079   335A      3.366246   336A      3.366257  
     337A      3.413406   338A      3.413543   339A      3.515009  
     340A      3.515052   341A      3.590757   342A      3.590769  
     343A      3.627801   344A      3.627964   345A      3.977251  
     346A      3.977439   347A      4.253574   348A      4.253618  

    Final Occupation by Irrep:
              A 
    DOCC [    42 ]

  @DF-RHF Final Energy:  -525.27987838306672

   => Energetics <=

    Nuclear Repulsion Energy =            498.0274161936937389
    One-Electron Energy =               -1696.7760659989789929
    Two-Electron Energy =                 673.4687714222186514
    Total Energy =                       -525.2798783830667162

Computation Completed


Properties will be evaluated at   0.000000,   0.000000,   0.000000 [a0]

Properties computed using the SCF density matrix

  Nuclear Dipole Moment: [e a0]
     X:   110.1629      Y:  -381.9742      Z:  -853.0649

  Electronic Dipole Moment: [e a0]
     X:  -110.1629      Y:   381.9742      Z:   853.0649

  Dipole Moment: [e a0]
     X:     0.0000      Y:     0.0000      Z:     0.0000     Total:     0.0000

  Dipole Moment: [D]
     X:     0.0000      Y:     0.0000      Z:     0.0000     Total:     0.0000


*** tstop() called on atl1-1-01-013-24-l.pace.gatech.edu at Mon Nov 29 16:10:58 2021
Module time:
	user time   =      31.14 seconds =       0.52 minutes
	system time =       1.04 seconds =       0.02 minutes
	total time  =         17 seconds =       0.28 minutes
Total time:
	user time   =      31.14 seconds =       0.52 minutes
	system time =       1.04 seconds =       0.02 minutes
	total time  =         17 seconds =       0.28 minutes

  //>>>>>>>>>>>>>>>>>>>>>>>>>>>>>>>>>>>//
  //            Monomer A HF           //
  //<<<<<<<<<<<<<<<<<<<<<<<<<<<<<<<<<<<//


*** tstart() called on atl1-1-01-013-24-l.pace.gatech.edu
*** at Mon Nov 29 16:10:58 2021

   => Loading Basis Set <=

    Name: AUG-CC-PVDZ
    Role: ORBITAL
    Keyword: BASIS
    atoms 1-2, 11-12  entry N          line   218 file /storage/home/hhive1/csargent30/data/miniconda3/envs/psi4/share/psi4/basis/aug-cc-pvdz.gbs 
    atoms 3-6, 13-16  entry H          line    40 file /storage/home/hhive1/csargent30/data/miniconda3/envs/psi4/share/psi4/basis/aug-cc-pvdz.gbs 
    atoms 7-10, 17-20 entry C          line   182 file /storage/home/hhive1/csargent30/data/miniconda3/envs/psi4/share/psi4/basis/aug-cc-pvdz.gbs 


         ---------------------------------------------------------
                                   SCF
               by Justin Turney, Rob Parrish, Andy Simmonett
                          and Daniel G. A. Smith
                              RHF Reference
                        2 Threads,   6675 MiB Core
         ---------------------------------------------------------

  ==> Geometry <==

    Molecular point group: c1
    Full point group: C1

    Geometry (in Bohr), charge = 0, multiplicity = 1:

       Center              X                  Y                   Z               Mass       
    ------------   -----------------  -----------------  -----------------  -----------------
         N           -1.330847580000     0.980326580000     0.426270370000    14.003074004430
         N            3.953773330000     0.980326580000     0.426270370000    14.003074004430
         H            3.567136740000     4.352185690000    -0.942309730000     1.007825032230
         H           -0.944210980000     4.352185690000    -0.942309730000     1.007825032230
         H           -0.944210980000    -2.391532530000     1.794850470000     1.007825032230
         H            3.567136740000    -2.391532530000     1.794850470000     1.007825032230
         C            2.622925760000     2.940979740000    -0.426270370000    12.000000000000
         C            0.000000000000     2.940979740000    -0.426270370000    12.000000000000
         C            0.000000000000    -0.980326580000     1.278811120000    12.000000000000
         C            2.622925760000    -0.980326580000     1.278811120000    12.000000000000
      Gh(N)          -1.330847580000   -10.074949200000   -20.737339420000    14.003074004430
      Gh(N)           3.953773330000   -10.074949200000   -20.737339420000    14.003074004430
      Gh(H)           3.567136740000    -6.703090090000   -22.105919520000     1.007825032230
      Gh(H)          -0.944210980000    -6.703090090000   -22.105919520000     1.007825032230
      Gh(H)          -0.944210980000   -13.446808310000   -19.368759320000     1.007825032230
      Gh(H)           3.567136740000   -13.446808310000   -19.368759320000     1.007825032230
      Gh(C)           2.622925760000    -8.114296040000   -21.589880170000    12.000000000000
      Gh(C)           0.000000000000    -8.114296040000   -21.589880170000    12.000000000000
      Gh(C)           0.000000000000   -12.035602360000   -19.884798670000    12.000000000000
      Gh(C)           2.622925760000   -12.035602360000   -19.884798670000    12.000000000000

  Running in c1 symmetry.

  Rotational constants: A =      0.04543  B =      0.00139  C =      0.00138 [cm^-1]
  Rotational constants: A =   1361.84115  B =     41.69965  C =     41.48746 [MHz]
  Nuclear repulsion =  212.551731110485349

  Charge       = 0
  Multiplicity = 1
  Electrons    = 42
  Nalpha       = 21
  Nbeta        = 21

  ==> Algorithm <==

  SCF Algorithm Type is DF.
  DIIS enabled.
  MOM disabled.
  Fractional occupation disabled.
  Guess Type is SAD.
  Energy threshold   = 1.00e-10
  Density threshold  = 1.00e-10
  Integral threshold = 1.00e-12

  ==> Primary Basis <==

  Basis Set: AUG-CC-PVDZ
    Blend: AUG-CC-PVDZ
    Number of shells: 148
    Number of basis functions: 348
    Number of Cartesian functions: 372
    Spherical Harmonics?: true
    Max angular momentum: 2

   => Loading Basis Set <=

    Name: (AUG-CC-PVDZ AUX)
    Role: JKFIT
    Keyword: DF_BASIS_SCF
    atoms 1-2, 11-12  entry N          line   212 file /storage/home/hhive1/csargent30/data/miniconda3/envs/psi4/share/psi4/basis/aug-cc-pvdz-jkfit.gbs 
    atoms 3-6, 13-16  entry H          line    70 file /storage/home/hhive1/csargent30/data/miniconda3/envs/psi4/share/psi4/basis/aug-cc-pvdz-jkfit.gbs 
    atoms 7-10, 17-20 entry C          line   154 file /storage/home/hhive1/csargent30/data/miniconda3/envs/psi4/share/psi4/basis/aug-cc-pvdz-jkfit.gbs 

  ==> Integral Setup <==

  ==> DiskDFJK: Density-Fitted J/K Matrices <==

    J tasked:                  Yes
    K tasked:                  Yes
    wK tasked:                  No
    OpenMP threads:              2
    Integrals threads:           2
    Memory [MiB]:             5006
    Algorithm:                Core
    Integral Cache:           LOAD
    Schwarz Cutoff:          1E-12
    Fitting Condition:       1E-10

   => Auxiliary Basis Set <=

  Basis Set: (AUG-CC-PVDZ AUX)
    Blend: AUG-CC-PVDZ-JKFIT
    Number of shells: 432
    Number of basis functions: 1288
    Number of Cartesian functions: 1492
    Spherical Harmonics?: true
    Max angular momentum: 3

  Minimum eigenvalue in the overlap matrix is 9.4493575885E-06.
  Reciprocal condition number of the overlap matrix is 7.3701285391E-07.
    Using symmetric orthogonalization.

  ==> Pre-Iterations <==

  SCF Guess: Superposition of Atomic Densities via on-the-fly atomic UHF (no occupation information).

   -------------------------
    Irrep   Nso     Nmo    
   -------------------------
     A        348     348 
   -------------------------
    Total     348     348
   -------------------------

  ==> Iterations <==

                           Total Energy        Delta E     RMS |[F,P]|

   @DF-RHF iter SAD:  -262.32523126347331   -2.62325e+02   0.00000e+00 
   @DF-RHF iter   1:  -262.53940800120392   -2.14177e-01   1.11985e-03 DIIS
   @DF-RHF iter   2:  -262.62878839967766   -8.93804e-02   4.10664e-04 DIIS
   @DF-RHF iter   3:  -262.63862294500433   -9.83455e-03   1.28248e-04 DIIS
   @DF-RHF iter   4:  -262.63984769819990   -1.22475e-03   3.77599e-05 DIIS
   @DF-RHF iter   5:  -262.63993729866598   -8.96005e-05   7.55558e-06 DIIS
   @DF-RHF iter   6:  -262.63994384892612   -6.55026e-06   2.45264e-06 DIIS
   @DF-RHF iter   7:  -262.63994480129952   -9.52373e-07   6.40130e-07 DIIS
   @DF-RHF iter   8:  -262.63994487518846   -7.38889e-08   9.91693e-08 DIIS
   @DF-RHF iter   9:  -262.63994487717372   -1.98526e-09   1.88228e-08 DIIS
   @DF-RHF iter  10:  -262.63994487724432   -7.05995e-11   3.19151e-09 DIIS
   @DF-RHF iter  11:  -262.63994487724653   -2.21689e-12   5.22317e-10 DIIS
   @DF-RHF iter  12:  -262.63994487724722   -6.82121e-13   9.54362e-11 DIIS
  Energy and wave function converged.


  ==> Post-Iterations <==

    Orbital Energies [Eh]
    ---------------------

    Doubly Occupied:                                                      

       1A    -15.598072     2A    -15.598053     3A    -11.274239  
       4A    -11.274194     5A    -11.272975     6A    -11.272969  
       7A     -1.313347     8A     -1.224176     9A     -1.076803  
      10A     -0.922662    11A     -0.919282    12A     -0.760637  
      13A     -0.738402    14A     -0.706214    15A     -0.647687  
      16A     -0.580711    17A     -0.574369    18A     -0.497113  
      19A     -0.434288    20A     -0.415855    21A     -0.359924  

    Virtual:                                                              

      22A      0.022438    23A      0.034496    24A      0.039386  
      25A      0.040848    26A      0.041178    27A      0.048407  
      28A      0.058370    29A      0.059075    30A      0.067103  
      31A      0.079729    32A      0.085045    33A      0.099419  
      34A      0.100946    35A      0.103981    36A      0.108540  
      37A      0.108880    38A      0.114192    39A      0.114989  
      40A      0.122520    41A      0.123783    42A      0.125201  
      43A      0.125598    44A      0.128669    45A      0.131028  
      46A      0.132908    47A      0.134157    48A      0.152104  
      49A      0.153018    50A      0.158229    51A      0.159357  
      52A      0.161165    53A      0.161354    54A      0.163974  
      55A      0.175134    56A      0.176813    57A      0.186924  
      58A      0.197876    59A      0.203721    60A      0.204140  
      61A      0.206736    62A      0.212547    63A      0.222411  
      64A      0.233660    65A      0.239470    66A      0.250542  
      67A      0.255277    68A      0.267764    69A      0.270799  
      70A      0.278079    71A      0.287826    72A      0.293206  
      73A      0.295757    74A      0.302343    75A      0.314832  
      76A      0.320461    77A      0.320669    78A      0.328185  
      79A      0.331363    80A      0.344162    81A      0.355429  
      82A      0.357913    83A      0.364683    84A      0.380334  
      85A      0.382818    86A      0.385670    87A      0.398780  
      88A      0.401473    89A      0.409901    90A      0.419295  
      91A      0.424973    92A      0.425462    93A      0.433927  
      94A      0.437227    95A      0.441966    96A      0.452100  
      97A      0.460700    98A      0.461134    99A      0.471484  
     100A      0.476119   101A      0.478867   102A      0.492141  
     103A      0.504862   104A      0.507853   105A      0.514914  
     106A      0.523801   107A      0.524547   108A      0.528705  
     109A      0.535758   110A      0.554577   111A      0.557885  
     112A      0.561542   113A      0.564527   114A      0.570543  
     115A      0.581935   116A      0.587536   117A      0.591506  
     118A      0.593800   119A      0.596032   120A      0.608930  
     121A      0.615188   122A      0.620208   123A      0.636409  
     124A      0.643518   125A      0.644326   126A      0.649382  
     127A      0.651523   128A      0.679440   129A      0.685132  
     130A      0.685353   131A      0.687760   132A      0.689936  
     133A      0.690345   134A      0.694829   135A      0.703840  
     136A      0.719911   137A      0.728426   138A      0.746488  
     139A      0.746957   140A      0.754818   141A      0.766969  
     142A      0.775722   143A      0.781411   144A      0.793660  
     145A      0.799816   146A      0.802711   147A      0.811139  
     148A      0.812005   149A      0.819016   150A      0.824797  
     151A      0.831074   152A      0.847514   153A      0.848105  
     154A      0.849222   155A      0.868637   156A      0.880549  
     157A      0.886410   158A      0.888182   159A      0.894683  
     160A      0.906142   161A      0.929143   162A      0.929273  
     163A      0.939476   164A      0.947726   165A      0.949314  
     166A      0.970814   167A      0.976977   168A      0.986677  
     169A      0.996653   170A      0.998909   171A      1.013016  
     172A      1.032448   173A      1.033371   174A      1.046977  
     175A      1.051195   176A      1.076297   177A      1.089381  
     178A      1.090317   179A      1.100445   180A      1.122204  
     181A      1.124044   182A      1.130699   183A      1.134371  
     184A      1.140302   185A      1.158742   186A      1.168626  
     187A      1.170710   188A      1.173565   189A      1.192268  
     190A      1.193285   191A      1.200520   192A      1.222346  
     193A      1.235417   194A      1.238805   195A      1.251069  
     196A      1.307599   197A      1.309674   198A      1.318310  
     199A      1.326449   200A      1.329654   201A      1.331149  
     202A      1.346852   203A      1.389244   204A      1.414282  
     205A      1.448429   206A      1.451527   207A      1.455499  
     208A      1.479171   209A      1.486137   210A      1.487244  
     211A      1.488077   212A      1.499215   213A      1.502848  
     214A      1.518252   215A      1.572686   216A      1.574213  
     217A      1.587860   218A      1.635984   219A      1.640505  
     220A      1.648225   221A      1.659279   222A      1.676552  
     223A      1.698106   224A      1.716991   225A      1.746598  
     226A      1.755104   227A      1.783771   228A      1.815727  
     229A      1.893323   230A      1.916138   231A      1.964832  
     232A      1.987675   233A      2.031203   234A      2.070260  
     235A      2.091549   236A      2.101029   237A      2.102804  
     238A      2.119478   239A      2.142954   240A      2.156709  
     241A      2.159226   242A      2.163356   243A      2.190489  
     244A      2.193303   245A      2.194895   246A      2.200380  
     247A      2.202411   248A      2.227627   249A      2.234813  
     250A      2.241240   251A      2.249692   252A      2.310046  
     253A      2.312732   254A      2.319648   255A      2.355229  
     256A      2.384843   257A      2.419245   258A      2.430957  
     259A      2.435447   260A      2.438201   261A      2.438983  
     262A      2.472714   263A      2.486758   264A      2.498352  
     265A      2.519379   266A      2.522395   267A      2.525104  
     268A      2.546032   269A      2.568390   270A      2.584769  
     271A      2.592407   272A      2.606266   273A      2.626007  
     274A      2.665224   275A      2.675411   276A      2.686396  
     277A      2.713991   278A      2.716934   279A      2.718591  
     280A      2.726691   281A      2.767976   282A      2.844014  
     283A      2.865761   284A      2.904085   285A      2.939196  
     286A      2.947265   287A      2.955794   288A      2.973384  
     289A      3.001855   290A      3.017872   291A      3.032187  
     292A      3.058369   293A      3.065264   294A      3.094137  
     295A      3.113903   296A      3.220319   297A      3.245767  
     298A      3.255980   299A      3.284881   300A      3.289726  
     301A      3.321999   302A      3.337789   303A      3.340526  
     304A      3.348699   305A      3.351427   306A      3.366140  
     307A      3.412669   308A      3.413368   309A      3.470823  
     310A      3.502025   311A      3.514920   312A      3.521444  
     313A      3.590655   314A      3.604515   315A      3.605728  
     316A      3.627771   317A      3.700563   318A      3.818996  
     319A      3.830765   320A      3.941046   321A      3.969168  
     322A      3.977237   323A      4.011474   324A      4.194833  
     325A      4.242325   326A      4.253486   327A      4.442064  
     328A      4.546904   329A      4.579356   330A      4.867719  
     331A      4.976216   332A      5.057931   333A      5.261785  
     334A      5.316613   335A      5.630271   336A      5.691399  
     337A      5.827225   338A      5.952700   339A      6.283902  
     340A      6.306960   341A      6.453834   342A      6.631270  
     343A     18.125788   344A     18.208050   345A     19.017648  
     346A     19.343071   347A     25.287141   348A     25.374861  

    Final Occupation by Irrep:
              A 
    DOCC [    21 ]

  @DF-RHF Final Energy:  -262.63994487724722

   => Energetics <=

    Nuclear Repulsion Energy =            212.5517311104853491
    One-Electron Energy =                -775.4594098520783518
    Two-Electron Energy =                 300.2677338643458143
    Total Energy =                       -262.6399448772472169

Computation Completed


Properties will be evaluated at   0.000000,   0.000000,   0.000000 [a0]

Properties computed using the SCF density matrix

  Nuclear Dipole Moment: [e a0]
     X:    55.0814      Y:    41.1737      Z:    17.9034

  Electronic Dipole Moment: [e a0]
     X:   -55.0814      Y:   -41.1737      Z:   -17.9034

  Dipole Moment: [e a0]
     X:     0.0000      Y:    -0.0000      Z:    -0.0000     Total:     0.0000

  Dipole Moment: [D]
     X:     0.0000      Y:    -0.0000      Z:    -0.0000     Total:     0.0000


*** tstop() called on atl1-1-01-013-24-l.pace.gatech.edu at Mon Nov 29 16:11:09 2021
Module time:
	user time   =      19.64 seconds =       0.33 minutes
	system time =       0.52 seconds =       0.01 minutes
	total time  =         11 seconds =       0.18 minutes
Total time:
	user time   =      50.80 seconds =       0.85 minutes
	system time =       1.56 seconds =       0.03 minutes
	total time  =         28 seconds =       0.47 minutes

  //>>>>>>>>>>>>>>>>>>>>>>>>>>>>>>>>>>>//
  //            Monomer B HF           //
  //<<<<<<<<<<<<<<<<<<<<<<<<<<<<<<<<<<<//


*** tstart() called on atl1-1-01-013-24-l.pace.gatech.edu
*** at Mon Nov 29 16:11:09 2021

   => Loading Basis Set <=

    Name: AUG-CC-PVDZ
    Role: ORBITAL
    Keyword: BASIS
    atoms 1-2, 11-12  entry N          line   218 file /storage/home/hhive1/csargent30/data/miniconda3/envs/psi4/share/psi4/basis/aug-cc-pvdz.gbs 
    atoms 3-6, 13-16  entry H          line    40 file /storage/home/hhive1/csargent30/data/miniconda3/envs/psi4/share/psi4/basis/aug-cc-pvdz.gbs 
    atoms 7-10, 17-20 entry C          line   182 file /storage/home/hhive1/csargent30/data/miniconda3/envs/psi4/share/psi4/basis/aug-cc-pvdz.gbs 


         ---------------------------------------------------------
                                   SCF
               by Justin Turney, Rob Parrish, Andy Simmonett
                          and Daniel G. A. Smith
                              RHF Reference
                        2 Threads,   6675 MiB Core
         ---------------------------------------------------------

  ==> Geometry <==

    Molecular point group: c1
    Full point group: C1

    Geometry (in Bohr), charge = 0, multiplicity = 1:

       Center              X                  Y                   Z               Mass       
    ------------   -----------------  -----------------  -----------------  -----------------
      Gh(N)          -1.330847580000     0.980326580000     0.426270370000    14.003074004430
      Gh(N)           3.953773330000     0.980326580000     0.426270370000    14.003074004430
      Gh(H)           3.567136740000     4.352185690000    -0.942309730000     1.007825032230
      Gh(H)          -0.944210980000     4.352185690000    -0.942309730000     1.007825032230
      Gh(H)          -0.944210980000    -2.391532530000     1.794850470000     1.007825032230
      Gh(H)           3.567136740000    -2.391532530000     1.794850470000     1.007825032230
      Gh(C)           2.622925760000     2.940979740000    -0.426270370000    12.000000000000
      Gh(C)           0.000000000000     2.940979740000    -0.426270370000    12.000000000000
      Gh(C)           0.000000000000    -0.980326580000     1.278811120000    12.000000000000
      Gh(C)           2.622925760000    -0.980326580000     1.278811120000    12.000000000000
         N           -1.330847580000   -10.074949200000   -20.737339420000    14.003074004430
         N            3.953773330000   -10.074949200000   -20.737339420000    14.003074004430
         H            3.567136740000    -6.703090090000   -22.105919520000     1.007825032230
         H           -0.944210980000    -6.703090090000   -22.105919520000     1.007825032230
         H           -0.944210980000   -13.446808310000   -19.368759320000     1.007825032230
         H            3.567136740000   -13.446808310000   -19.368759320000     1.007825032230
         C            2.622925760000    -8.114296040000   -21.589880170000    12.000000000000
         C            0.000000000000    -8.114296040000   -21.589880170000    12.000000000000
         C            0.000000000000   -12.035602360000   -19.884798670000    12.000000000000
         C            2.622925760000   -12.035602360000   -19.884798670000    12.000000000000

  Running in c1 symmetry.

  Rotational constants: A =      0.04543  B =      0.00139  C =      0.00138 [cm^-1]
  Rotational constants: A =   1361.84115  B =     41.69965  C =     41.48746 [MHz]
  Nuclear repulsion =  212.551731042300531

  Charge       = 0
  Multiplicity = 1
  Electrons    = 42
  Nalpha       = 21
  Nbeta        = 21

  ==> Algorithm <==

  SCF Algorithm Type is DF.
  DIIS enabled.
  MOM disabled.
  Fractional occupation disabled.
  Guess Type is SAD.
  Energy threshold   = 1.00e-10
  Density threshold  = 1.00e-10
  Integral threshold = 1.00e-12

  ==> Primary Basis <==

  Basis Set: AUG-CC-PVDZ
    Blend: AUG-CC-PVDZ
    Number of shells: 148
    Number of basis functions: 348
    Number of Cartesian functions: 372
    Spherical Harmonics?: true
    Max angular momentum: 2

   => Loading Basis Set <=

    Name: (AUG-CC-PVDZ AUX)
    Role: JKFIT
    Keyword: DF_BASIS_SCF
    atoms 1-2, 11-12  entry N          line   212 file /storage/home/hhive1/csargent30/data/miniconda3/envs/psi4/share/psi4/basis/aug-cc-pvdz-jkfit.gbs 
    atoms 3-6, 13-16  entry H          line    70 file /storage/home/hhive1/csargent30/data/miniconda3/envs/psi4/share/psi4/basis/aug-cc-pvdz-jkfit.gbs 
    atoms 7-10, 17-20 entry C          line   154 file /storage/home/hhive1/csargent30/data/miniconda3/envs/psi4/share/psi4/basis/aug-cc-pvdz-jkfit.gbs 

  ==> Integral Setup <==

  ==> DiskDFJK: Density-Fitted J/K Matrices <==

    J tasked:                  Yes
    K tasked:                  Yes
    wK tasked:                  No
    OpenMP threads:              2
    Integrals threads:           2
    Memory [MiB]:             5006
    Algorithm:                Core
    Integral Cache:           LOAD
    Schwarz Cutoff:          1E-12
    Fitting Condition:       1E-10

   => Auxiliary Basis Set <=

  Basis Set: (AUG-CC-PVDZ AUX)
    Blend: AUG-CC-PVDZ-JKFIT
    Number of shells: 432
    Number of basis functions: 1288
    Number of Cartesian functions: 1492
    Spherical Harmonics?: true
    Max angular momentum: 3

  Minimum eigenvalue in the overlap matrix is 9.4493575885E-06.
  Reciprocal condition number of the overlap matrix is 7.3701285391E-07.
    Using symmetric orthogonalization.

  ==> Pre-Iterations <==

  SCF Guess: Superposition of Atomic Densities via on-the-fly atomic UHF (no occupation information).

   -------------------------
    Irrep   Nso     Nmo    
   -------------------------
     A        348     348 
   -------------------------
    Total     348     348
   -------------------------

  ==> Iterations <==

                           Total Energy        Delta E     RMS |[F,P]|

   @DF-RHF iter SAD:  -262.32523125719342   -2.62325e+02   0.00000e+00 
   @DF-RHF iter   1:  -262.53940800106642   -2.14177e-01   1.11985e-03 DIIS
   @DF-RHF iter   2:  -262.62878839940964   -8.93804e-02   4.10664e-04 DIIS
   @DF-RHF iter   3:  -262.63862294468777   -9.83455e-03   1.28248e-04 DIIS
   @DF-RHF iter   4:  -262.63984769788414   -1.22475e-03   3.77599e-05 DIIS
   @DF-RHF iter   5:  -262.63993729834959   -8.96005e-05   7.55558e-06 DIIS
   @DF-RHF iter   6:  -262.63994384861007   -6.55026e-06   2.45264e-06 DIIS
   @DF-RHF iter   7:  -262.63994480098398   -9.52374e-07   6.40130e-07 DIIS
   @DF-RHF iter   8:  -262.63994487487179   -7.38878e-08   9.91693e-08 DIIS
   @DF-RHF iter   9:  -262.63994487685750   -1.98571e-09   1.88228e-08 DIIS
   @DF-RHF iter  10:  -262.63994487692781   -7.03153e-11   3.19151e-09 DIIS
   @DF-RHF iter  11:  -262.63994487693083   -3.01270e-12   5.22317e-10 DIIS
   @DF-RHF iter  12:  -262.63994487693083    0.00000e+00   9.54361e-11 DIIS
  Energy and wave function converged.


  ==> Post-Iterations <==

    Orbital Energies [Eh]
    ---------------------

    Doubly Occupied:                                                      

       1A    -15.598072     2A    -15.598053     3A    -11.274239  
       4A    -11.274194     5A    -11.272975     6A    -11.272969  
       7A     -1.313347     8A     -1.224176     9A     -1.076803  
      10A     -0.922662    11A     -0.919282    12A     -0.760637  
      13A     -0.738402    14A     -0.706214    15A     -0.647687  
      16A     -0.580711    17A     -0.574369    18A     -0.497113  
      19A     -0.434288    20A     -0.415855    21A     -0.359924  

    Virtual:                                                              

      22A      0.022438    23A      0.034496    24A      0.039386  
      25A      0.040848    26A      0.041178    27A      0.048407  
      28A      0.058370    29A      0.059075    30A      0.067103  
      31A      0.079729    32A      0.085045    33A      0.099419  
      34A      0.100946    35A      0.103981    36A      0.108540  
      37A      0.108880    38A      0.114192    39A      0.114989  
      40A      0.122520    41A      0.123783    42A      0.125201  
      43A      0.125598    44A      0.128669    45A      0.131028  
      46A      0.132908    47A      0.134157    48A      0.152104  
      49A      0.153018    50A      0.158229    51A      0.159357  
      52A      0.161165    53A      0.161354    54A      0.163974  
      55A      0.175134    56A      0.176813    57A      0.186924  
      58A      0.197876    59A      0.203721    60A      0.204140  
      61A      0.206736    62A      0.212547    63A      0.222411  
      64A      0.233660    65A      0.239470    66A      0.250542  
      67A      0.255277    68A      0.267764    69A      0.270799  
      70A      0.278079    71A      0.287826    72A      0.293206  
      73A      0.295758    74A      0.302343    75A      0.314832  
      76A      0.320461    77A      0.320669    78A      0.328185  
      79A      0.331363    80A      0.344162    81A      0.355429  
      82A      0.357913    83A      0.364683    84A      0.380334  
      85A      0.382818    86A      0.385670    87A      0.398780  
      88A      0.401473    89A      0.409901    90A      0.419295  
      91A      0.424973    92A      0.425462    93A      0.433927  
      94A      0.437227    95A      0.441966    96A      0.452100  
      97A      0.460700    98A      0.461134    99A      0.471484  
     100A      0.476119   101A      0.478867   102A      0.492141  
     103A      0.504862   104A      0.507853   105A      0.514914  
     106A      0.523801   107A      0.524547   108A      0.528705  
     109A      0.535758   110A      0.554577   111A      0.557885  
     112A      0.561542   113A      0.564527   114A      0.570543  
     115A      0.581935   116A      0.587536   117A      0.591506  
     118A      0.593800   119A      0.596032   120A      0.608930  
     121A      0.615188   122A      0.620208   123A      0.636409  
     124A      0.643518   125A      0.644326   126A      0.649382  
     127A      0.651523   128A      0.679440   129A      0.685132  
     130A      0.685353   131A      0.687760   132A      0.689936  
     133A      0.690345   134A      0.694829   135A      0.703840  
     136A      0.719911   137A      0.728426   138A      0.746488  
     139A      0.746957   140A      0.754818   141A      0.766969  
     142A      0.775722   143A      0.781411   144A      0.793660  
     145A      0.799816   146A      0.802711   147A      0.811139  
     148A      0.812005   149A      0.819016   150A      0.824797  
     151A      0.831074   152A      0.847514   153A      0.848105  
     154A      0.849222   155A      0.868637   156A      0.880549  
     157A      0.886410   158A      0.888182   159A      0.894683  
     160A      0.906142   161A      0.929143   162A      0.929273  
     163A      0.939476   164A      0.947726   165A      0.949314  
     166A      0.970814   167A      0.976977   168A      0.986677  
     169A      0.996653   170A      0.998909   171A      1.013016  
     172A      1.032448   173A      1.033371   174A      1.046977  
     175A      1.051195   176A      1.076297   177A      1.089381  
     178A      1.090317   179A      1.100445   180A      1.122204  
     181A      1.124044   182A      1.130699   183A      1.134371  
     184A      1.140302   185A      1.158742   186A      1.168626  
     187A      1.170710   188A      1.173565   189A      1.192268  
     190A      1.193285   191A      1.200520   192A      1.222346  
     193A      1.235417   194A      1.238805   195A      1.251069  
     196A      1.307599   197A      1.309674   198A      1.318310  
     199A      1.326449   200A      1.329654   201A      1.331149  
     202A      1.346852   203A      1.389244   204A      1.414282  
     205A      1.448429   206A      1.451527   207A      1.455499  
     208A      1.479171   209A      1.486137   210A      1.487243  
     211A      1.488077   212A      1.499215   213A      1.502848  
     214A      1.518253   215A      1.572686   216A      1.574213  
     217A      1.587860   218A      1.635984   219A      1.640505  
     220A      1.648225   221A      1.659279   222A      1.676552  
     223A      1.698106   224A      1.716991   225A      1.746598  
     226A      1.755104   227A      1.783771   228A      1.815727  
     229A      1.893323   230A      1.916138   231A      1.964832  
     232A      1.987675   233A      2.031203   234A      2.070260  
     235A      2.091549   236A      2.101030   237A      2.102804  
     238A      2.119478   239A      2.142954   240A      2.156709  
     241A      2.159226   242A      2.163356   243A      2.190489  
     244A      2.193303   245A      2.194895   246A      2.200380  
     247A      2.202411   248A      2.227627   249A      2.234813  
     250A      2.241240   251A      2.249692   252A      2.310046  
     253A      2.312732   254A      2.319648   255A      2.355229  
     256A      2.384843   257A      2.419245   258A      2.430957  
     259A      2.435447   260A      2.438201   261A      2.438983  
     262A      2.472714   263A      2.486758   264A      2.498352  
     265A      2.519379   266A      2.522395   267A      2.525104  
     268A      2.546032   269A      2.568390   270A      2.584769  
     271A      2.592407   272A      2.606266   273A      2.626007  
     274A      2.665224   275A      2.675411   276A      2.686396  
     277A      2.713991   278A      2.716934   279A      2.718591  
     280A      2.726691   281A      2.767976   282A      2.844014  
     283A      2.865761   284A      2.904085   285A      2.939196  
     286A      2.947265   287A      2.955794   288A      2.973384  
     289A      3.001855   290A      3.017872   291A      3.032187  
     292A      3.058369   293A      3.065264   294A      3.094137  
     295A      3.113903   296A      3.220320   297A      3.245767  
     298A      3.255980   299A      3.284881   300A      3.289726  
     301A      3.321999   302A      3.337789   303A      3.340526  
     304A      3.348699   305A      3.351427   306A      3.366140  
     307A      3.412669   308A      3.413368   309A      3.470823  
     310A      3.502025   311A      3.514920   312A      3.521444  
     313A      3.590655   314A      3.604515   315A      3.605728  
     316A      3.627771   317A      3.700563   318A      3.818996  
     319A      3.830765   320A      3.941046   321A      3.969168  
     322A      3.977237   323A      4.011474   324A      4.194833  
     325A      4.242325   326A      4.253486   327A      4.442064  
     328A      4.546904   329A      4.579356   330A      4.867719  
     331A      4.976216   332A      5.057931   333A      5.261785  
     334A      5.316613   335A      5.630271   336A      5.691399  
     337A      5.827225   338A      5.952700   339A      6.283902  
     340A      6.306960   341A      6.453834   342A      6.631270  
     343A     18.125788   344A     18.208050   345A     19.017648  
     346A     19.343071   347A     25.287141   348A     25.374861  

    Final Occupation by Irrep:
              A 
    DOCC [    21 ]

  @DF-RHF Final Energy:  -262.63994487693083

   => Energetics <=

    Nuclear Repulsion Energy =            212.5517310423005313
    One-Electron Energy =                -775.4594097152476024
    Two-Electron Energy =                 300.2677337960162731
    Total Energy =                       -262.6399448769308265

Computation Completed


Properties will be evaluated at   0.000000,   0.000000,   0.000000 [a0]

Properties computed using the SCF density matrix

  Nuclear Dipole Moment: [e a0]
     X:    55.0814      Y:  -423.1479      Z:  -870.9683

  Electronic Dipole Moment: [e a0]
     X:   -55.0814      Y:   423.1479      Z:   870.9683

  Dipole Moment: [e a0]
     X:     0.0000      Y:     0.0000      Z:     0.0000     Total:     0.0000

  Dipole Moment: [D]
     X:     0.0000      Y:     0.0000      Z:     0.0000     Total:     0.0000


*** tstop() called on atl1-1-01-013-24-l.pace.gatech.edu at Mon Nov 29 16:11:19 2021
Module time:
	user time   =      19.22 seconds =       0.32 minutes
	system time =       0.51 seconds =       0.01 minutes
	total time  =         10 seconds =       0.17 minutes
Total time:
	user time   =      70.03 seconds =       1.17 minutes
	system time =       2.07 seconds =       0.03 minutes
	total time  =         38 seconds =       0.63 minutes
  Constructing Basis Sets for SAPT...

   => Loading Basis Set <=

    Name: (AUG-CC-PVDZ AUX)
    Role: RIFIT
    Keyword: DF_BASIS_SAPT
    atoms 1-2, 11-12  entry N          line   158 file /storage/home/hhive1/csargent30/data/miniconda3/envs/psi4/share/psi4/basis/aug-cc-pvdz-ri.gbs 
    atoms 3-6, 13-16  entry H          line    30 file /storage/home/hhive1/csargent30/data/miniconda3/envs/psi4/share/psi4/basis/aug-cc-pvdz-ri.gbs 
    atoms 7-10, 17-20 entry C          line   112 file /storage/home/hhive1/csargent30/data/miniconda3/envs/psi4/share/psi4/basis/aug-cc-pvdz-ri.gbs 


  //>>>>>>>>>>>>>>>>>>>>>>>>>>>>>>>>>>>//
  //               SAPT0               //
  //<<<<<<<<<<<<<<<<<<<<<<<<<<<<<<<<<<<//


*** tstart() called on atl1-1-01-013-24-l.pace.gatech.edu
*** at Mon Nov 29 16:11:19 2021

        SAPT0  
    Ed Hohenstein
     6 June 2009

      Orbital Information
  --------------------------
    NSO        =       348
    NMO        =       348
    NRI        =      1048
    NOCC A     =        21
    NOCC B     =        21
    FOCC A     =         6
    FOCC B     =         6
    NVIR A     =       327
    NVIR B     =       327

    Elst10,r            =     0.000011363879 [Eh]
    Exch10              =    -0.000000000010 [Eh]
    Exch10 (S^2)        =    -0.000000000010 [Eh]

    Iter     Energy [mEh]          dE [mEh]         Residual      Time [s]
       1      -0.00000599       0.000005990       0.024502399             0
       2      -0.00000541      -0.000000575       0.005640563             1
       3      -0.00000580       0.000000388       0.002856608             1
       4      -0.00000595       0.000000147       0.000698967             2
       5      -0.00000591      -0.000000035       0.000325665             2
       6      -0.00000592       0.000000001       0.000148182             2
       7      -0.00000592       0.000000002       0.000045317             3
       8      -0.00000592       0.000000000       0.000010723             3
       9      -0.00000592      -0.000000000       0.000003555             3
      10      -0.00000592      -0.000000000       0.000000955             4

    CHF Iterations converged


    Iter     Energy [mEh]          dE [mEh]         Residual      Time [s]
       1      -0.00000599       0.000005990       0.024502399             0
       2      -0.00000541      -0.000000575       0.005640563             1
       3      -0.00000580       0.000000388       0.002856608             1
       4      -0.00000595       0.000000147       0.000698967             1
       5      -0.00000591      -0.000000035       0.000325665             2
       6      -0.00000592       0.000000001       0.000148182             2
       7      -0.00000592       0.000000002       0.000045317             2
       8      -0.00000592       0.000000000       0.000010723             3
       9      -0.00000592      -0.000000000       0.000003555             3
      10      -0.00000592      -0.000000000       0.000000955             4

    CHF Iterations converged

    Ind20,r (A<-B)      =    -0.000000005918 [Eh]
    Ind20,r (B<-A)      =    -0.000000005918 [Eh]
    Ind20,r             =    -0.000000011836 [Eh]
    Exch-Ind20,r (A<-B) =     0.000000000012 [Eh]
    Exch-Ind20,r (B<-A) =     0.000000000012 [Eh]
    Exch-Ind20,r        =     0.000000000025 [Eh]
    Disp20              =    -0.000007015336 [Eh]
    Disp20 (SS)         =    -0.000003507668 [Eh]
    Disp20 (OS)         =    -0.000003507668 [Eh]
    Exch-Disp20         =     0.000000000004 [Eh]
    Exch-Disp20 (SS)    =     0.000000000003 [Eh]
    Exch-Disp20 (OS)    =     0.000000000001 [Eh]

    SAPT Results 
  --------------------------------------------------------------------------------------------------------
    Electrostatics                  0.01136388 [mEh]       0.00713094 [kcal/mol]       0.02983586 [kJ/mol]
      Elst10,r                      0.01136388 [mEh]       0.00713094 [kcal/mol]       0.02983586 [kJ/mol]

    Exchange                       -0.00000001 [mEh]      -0.00000001 [kcal/mol]      -0.00000003 [kJ/mol]
      Exch10                       -0.00000001 [mEh]      -0.00000001 [kcal/mol]      -0.00000003 [kJ/mol]
      Exch10(S^2)                  -0.00000001 [mEh]      -0.00000001 [kcal/mol]      -0.00000003 [kJ/mol]

    Induction                       0.00000724 [mEh]       0.00000454 [kcal/mol]       0.00001901 [kJ/mol]
      Ind20,r                      -0.00001184 [mEh]      -0.00000743 [kcal/mol]      -0.00003108 [kJ/mol]
      Exch-Ind20,r                  0.00000002 [mEh]       0.00000002 [kcal/mol]       0.00000007 [kJ/mol]
      delta HF,r (2)                0.00001905 [mEh]       0.00001196 [kcal/mol]       0.00005002 [kJ/mol]

    Dispersion                     -0.00701533 [mEh]      -0.00440219 [kcal/mol]      -0.01841875 [kJ/mol]
      Disp20                       -0.00701534 [mEh]      -0.00440219 [kcal/mol]      -0.01841876 [kJ/mol]
      Exch-Disp20                   0.00000000 [mEh]       0.00000000 [kcal/mol]       0.00000001 [kJ/mol]
      Disp20 (SS)                  -0.00350767 [mEh]      -0.00220109 [kcal/mol]      -0.00920938 [kJ/mol]
      Disp20 (OS)                  -0.00350767 [mEh]      -0.00220109 [kcal/mol]      -0.00920938 [kJ/mol]
      Exch-Disp20 (SS)              0.00000000 [mEh]       0.00000000 [kcal/mol]       0.00000001 [kJ/mol]
      Exch-Disp20 (OS)              0.00000000 [mEh]       0.00000000 [kcal/mol]       0.00000000 [kJ/mol]

  Total HF                          0.01137111 [mEh]       0.00713548 [kcal/mol]       0.02985485 [kJ/mol]
  Total SAPT0                       0.00435578 [mEh]       0.00273329 [kcal/mol]       0.01143610 [kJ/mol]

  Special recipe for scaled SAPT0 (see Manual):
    Electrostatics sSAPT0           0.01136388 [mEh]       0.00713094 [kcal/mol]       0.02983586 [kJ/mol]
    Exchange sSAPT0                -0.00000001 [mEh]      -0.00000001 [kcal/mol]      -0.00000003 [kJ/mol]
    Induction sSAPT0                0.00000724 [mEh]       0.00000454 [kcal/mol]       0.00001901 [kJ/mol]
    Dispersion sSAPT0              -0.00701533 [mEh]      -0.00440219 [kcal/mol]      -0.01841875 [kJ/mol]
  Total sSAPT0                      0.00435578 [mEh]       0.00273329 [kcal/mol]       0.01143610 [kJ/mol]
  --------------------------------------------------------------------------------------------------------

*** tstop() called on atl1-1-01-013-24-l.pace.gatech.edu at Mon Nov 29 16:11:45 2021
Module time:
	user time   =      39.72 seconds =       0.66 minutes
	system time =       8.75 seconds =       0.15 minutes
	total time  =         26 seconds =       0.43 minutes
Total time:
	user time   =     109.99 seconds =       1.83 minutes
	system time =      10.83 seconds =       0.18 minutes
	total time  =         64 seconds =       1.07 minutes


Warning! sapt0 does not have an associated derived wavefunction.The returned wavefunction is the dimer SCF wavefunction.


    Psi4 stopped on: Monday, 29 November 2021 04:11PM
    Psi4 wall time for execution: 0:01:04.76

*** Psi4 exiting successfully. Buy a developer a beer!
