
    -----------------------------------------------------------------------
          Psi4: An Open-Source Ab Initio Electronic Structure Package
                               Psi4 1.4.1 release

                         Git: Rev {HEAD} cd00f19


    D. G. A. Smith, L. A. Burns, A. C. Simmonett, R. M. Parrish,
    M. C. Schieber, R. Galvelis, P. Kraus, H. Kruse, R. Di Remigio,
    A. Alenaizan, A. M. James, S. Lehtola, J. P. Misiewicz, M. Scheurer,
    R. A. Shaw, J. B. Schriber, Y. Xie, Z. L. Glick, D. A. Sirianni,
    J. S. O'Brien, J. M. Waldrop, A. Kumar, E. G. Hohenstein,
    B. P. Pritchard, B. R. Brooks, H. F. Schaefer III, A. Yu. Sokolov,
    K. Patkowski, A. E. DePrince III, U. Bozkaya, R. A. King,
    F. A. Evangelista, J. M. Turney, T. D. Crawford, C. D. Sherrill,
    J. Chem. Phys. 152(18) 184108 (2020). https://doi.org/10.1063/5.0006002

                            Additional Code Authors
    E. T. Seidl, C. L. Janssen, E. F. Valeev, M. L. Leininger,
    J. F. Gonthier, R. M. Richard, H. R. McAlexander, M. Saitow, X. Wang,
    P. Verma, and M. H. Lechner

             Previous Authors, Complete List of Code Contributors,
                       and Citations for Specific Modules
    https://github.com/psi4/psi4/blob/master/codemeta.json
    https://github.com/psi4/psi4/graphs/contributors
    http://psicode.org/psi4manual/master/introduction.html#citing-psifour

    -----------------------------------------------------------------------


    Psi4 started on: Monday, 29 November 2021 04:10PM

    Process ID: 305538
    Host:       atl1-1-01-015-9-r.pace.gatech.edu
    PSIDATADIR: /storage/home/hhive1/csargent30/data/miniconda3/envs/psi4/share/psi4
    Memory:     500.0 MiB
    Threads:    2

  ==> Input File <==

--------------------------------------------------------------------------
# PSI4 file produced by CrystaLattE

# Generated from:               pyrazine.xyz
# Psithon input for N-mer:      2mer-0+370
# Number of atoms per monomer:  [10, 10]
# Number of replicas:           2
# COM priority:                 1.642094219533e-05
# Minimum COM separations:      20.819
# Separation priority:          2.211135031273e-05
# Minimum monomer separations:  18.854
# Cutoff priority:              6.206122641934e-07
# Nuclear repulsion energy:     469.8247773003642

memory 7 GB

molecule Dimer_0_370 {
  N           -1.33084758       0.98032658       0.42627037
  N            3.95377333       0.98032658       0.42627037
  H            3.56713674       4.35218569      -0.94230973
  H           -0.94421098       4.35218569      -0.94230973
  H           -0.94421098      -2.39153253       1.79485047
  H            3.56713674      -2.39153253       1.79485047
  C            2.62292576       2.94097974      -0.42627037
  C            0.00000000       2.94097974      -0.42627037
  C            0.00000000      -0.98032658       1.27881112
  C            2.62292576      -0.98032658       1.27881112
--
  N           -1.33084758     -32.18550076     -20.73733942
  N            3.95377333     -32.18550076     -20.73733942
  H            3.56713674     -28.81364165     -22.10591952
  H           -0.94421098     -28.81364165     -22.10591952
  H           -0.94421098     -35.55735987     -19.36875932
  H            3.56713674     -35.55735987     -19.36875932
  C            2.62292576     -30.22484760     -21.58988017
  C            0.00000000     -30.22484760     -21.58988017
  C            0.00000000     -34.14615392     -19.88479867
  C            2.62292576     -34.14615392     -19.88479867
units = au
no_com
no_reorient
}

set {
  e_convergence 10
  d_convergence 10
  scf_type df
  mp2_type df
  cc_type df
  freeze_core true
}

energy('sapt0/aug-cc-pvdz')

--------------------------------------------------------------------------

  Memory set to   6.519 GiB by Python driver.

Scratch directory: /tmp/

Scratch directory: /tmp/

  //>>>>>>>>>>>>>>>>>>>>>>>>>>>>>>>>>>>//
  //              Dimer HF             //
  //<<<<<<<<<<<<<<<<<<<<<<<<<<<<<<<<<<<//


*** tstart() called on atl1-1-01-015-9-r.pace.gatech.edu
*** at Mon Nov 29 16:10:41 2021

   => Loading Basis Set <=

    Name: AUG-CC-PVDZ
    Role: ORBITAL
    Keyword: BASIS
    atoms 1-2, 11-12  entry N          line   218 file /storage/home/hhive1/csargent30/data/miniconda3/envs/psi4/share/psi4/basis/aug-cc-pvdz.gbs
    atoms 3-6, 13-16  entry H          line    40 file /storage/home/hhive1/csargent30/data/miniconda3/envs/psi4/share/psi4/basis/aug-cc-pvdz.gbs
    atoms 7-10, 17-20 entry C          line   182 file /storage/home/hhive1/csargent30/data/miniconda3/envs/psi4/share/psi4/basis/aug-cc-pvdz.gbs


         ---------------------------------------------------------
                                   SCF
               by Justin Turney, Rob Parrish, Andy Simmonett
                          and Daniel G. A. Smith
                              RHF Reference
                        2 Threads,   6675 MiB Core
         ---------------------------------------------------------

  ==> Geometry <==

    Molecular point group: c1
    Full point group: C1

    Geometry (in Bohr), charge = 0, multiplicity = 1:

       Center              X                  Y                   Z               Mass
    ------------   -----------------  -----------------  -----------------  -----------------
         N           -1.330847580000     0.980326580000     0.426270370000    14.003074004430
         N            3.953773330000     0.980326580000     0.426270370000    14.003074004430
         H            3.567136740000     4.352185690000    -0.942309730000     1.007825032230
         H           -0.944210980000     4.352185690000    -0.942309730000     1.007825032230
         H           -0.944210980000    -2.391532530000     1.794850470000     1.007825032230
         H            3.567136740000    -2.391532530000     1.794850470000     1.007825032230
         C            2.622925760000     2.940979740000    -0.426270370000    12.000000000000
         C            0.000000000000     2.940979740000    -0.426270370000    12.000000000000
         C            0.000000000000    -0.980326580000     1.278811120000    12.000000000000
         C            2.622925760000    -0.980326580000     1.278811120000    12.000000000000
         N           -1.330847580000   -32.185500760000   -20.737339420000    14.003074004430
         N            3.953773330000   -32.185500760000   -20.737339420000    14.003074004430
         H            3.567136740000   -28.813641650000   -22.105919520000     1.007825032230
         H           -0.944210980000   -28.813641650000   -22.105919520000     1.007825032230
         H           -0.944210980000   -35.557359870000   -19.368759320000     1.007825032230
         H            3.567136740000   -35.557359870000   -19.368759320000     1.007825032230
         C            2.622925760000   -30.224847600000   -21.589880170000    12.000000000000
         C            0.000000000000   -30.224847600000   -21.589880170000    12.000000000000
         C            0.000000000000   -34.146153920000   -19.884798670000    12.000000000000
         C            2.622925760000   -34.146153920000   -19.884798670000    12.000000000000

  Running in c1 symmetry.

  Rotational constants: A =      0.05381  B =      0.00051  C =      0.00051 [cm^-1]
  Rotational constants: A =   1613.22772  B =     15.28196  C =     15.23438 [MHz]
  Nuclear repulsion =  469.824777228861706

  Charge       = 0
  Multiplicity = 1
  Electrons    = 84
  Nalpha       = 42
  Nbeta        = 42

  ==> Algorithm <==

  SCF Algorithm Type is DF.
  DIIS enabled.
  MOM disabled.
  Fractional occupation disabled.
  Guess Type is SAD.
  Energy threshold   = 1.00e-10
  Density threshold  = 1.00e-10
  Integral threshold = 1.00e-12

  ==> Primary Basis <==

  Basis Set: AUG-CC-PVDZ
    Blend: AUG-CC-PVDZ
    Number of shells: 148
    Number of basis functions: 348
    Number of Cartesian functions: 372
    Spherical Harmonics?: true
    Max angular momentum: 2

   => Loading Basis Set <=

    Name: (AUG-CC-PVDZ AUX)
    Role: JKFIT
    Keyword: DF_BASIS_SCF
    atoms 1-2, 11-12  entry N          line   212 file /storage/home/hhive1/csargent30/data/miniconda3/envs/psi4/share/psi4/basis/aug-cc-pvdz-jkfit.gbs
    atoms 3-6, 13-16  entry H          line    70 file /storage/home/hhive1/csargent30/data/miniconda3/envs/psi4/share/psi4/basis/aug-cc-pvdz-jkfit.gbs
    atoms 7-10, 17-20 entry C          line   154 file /storage/home/hhive1/csargent30/data/miniconda3/envs/psi4/share/psi4/basis/aug-cc-pvdz-jkfit.gbs

  ==> Integral Setup <==

  ==> DiskDFJK: Density-Fitted J/K Matrices <==

    J tasked:                  Yes
    K tasked:                  Yes
    wK tasked:                  No
    OpenMP threads:              2
    Integrals threads:           2
    Memory [MiB]:             5006
    Algorithm:                Core
    Integral Cache:           SAVE
    Schwarz Cutoff:          1E-12
    Fitting Condition:       1E-10

   => Auxiliary Basis Set <=

  Basis Set: (AUG-CC-PVDZ AUX)
    Blend: AUG-CC-PVDZ-JKFIT
    Number of shells: 432
    Number of basis functions: 1288
    Number of Cartesian functions: 1492
    Spherical Harmonics?: true
    Max angular momentum: 3

  Minimum eigenvalue in the overlap matrix is 9.4898676806E-06.
  Reciprocal condition number of the overlap matrix is 7.4017856612E-07.
    Using symmetric orthogonalization.

  ==> Pre-Iterations <==

  SCF Guess: Superposition of Atomic Densities via on-the-fly atomic UHF (no occupation information).

   -------------------------
    Irrep   Nso     Nmo
   -------------------------
     A        348     348
   -------------------------
    Total     348     348
   -------------------------

  ==> Iterations <==

                           Total Energy        Delta E     RMS |[F,P]|

   @DF-RHF iter SAD:  -524.65046251195599   -5.24650e+02   0.00000e+00
   @DF-RHF iter   1:  -525.07881717518103   -4.28355e-01   1.58371e-03 DIIS
   @DF-RHF iter   2:  -525.25757783311496   -1.78761e-01   5.80762e-04 DIIS
   @DF-RHF iter   3:  -525.27724660610625   -1.96688e-02   1.81369e-04 DIIS
   @DF-RHF iter   4:  -525.27969610085779   -2.44949e-03   5.34006e-05 DIIS
   @DF-RHF iter   5:  -525.27987530280404   -1.79202e-04   1.06853e-05 DIIS
   @DF-RHF iter   6:  -525.27988840362696   -1.31008e-05   3.46859e-06 DIIS
   @DF-RHF iter   7:  -525.27989030841013   -1.90478e-06   9.05281e-07 DIIS
   @DF-RHF iter   8:  -525.27989045618563   -1.47775e-07   1.40255e-07 DIIS
   @DF-RHF iter   9:  -525.27989046015728   -3.97165e-09   2.66654e-08 DIIS
   @DF-RHF iter  10:  -525.27989046029973   -1.42450e-10   4.86005e-09 DIIS
   @DF-RHF iter  11:  -525.27989046030427   -4.54747e-12   2.05703e-09 DIIS
   @DF-RHF iter  12:  -525.27989046030370    5.68434e-13   4.88841e-10 DIIS
   @DF-RHF iter  13:  -525.27989046030461   -9.09495e-13   9.40213e-11 DIIS
  Energy and wave function converged.


  ==> Post-Iterations <==

    Orbital Energies [Eh]
    ---------------------

    Doubly Occupied:

       1A    -15.598102     2A    -15.598102     3A    -15.598084
       4A    -15.598084     5A    -11.274269     6A    -11.274269
       7A    -11.274224     8A    -11.274224     9A    -11.273005
      10A    -11.273005    11A    -11.272999    12A    -11.272999
      13A     -1.313377    14A     -1.313377    15A     -1.224206
      16A     -1.224206    17A     -1.076833    18A     -1.076833
      19A     -0.922693    20A     -0.922693    21A     -0.919313
      22A     -0.919313    23A     -0.760667    24A     -0.760667
      25A     -0.738432    26A     -0.738432    27A     -0.706244
      28A     -0.706244    29A     -0.647717    30A     -0.647717
      31A     -0.580741    32A     -0.580741    33A     -0.574400
      34A     -0.574400    35A     -0.497143    36A     -0.497143
      37A     -0.434319    38A     -0.434319    39A     -0.415886
      40A     -0.415886    41A     -0.359955    42A     -0.359955

    Virtual:

      43A      0.034470    44A      0.034470    45A      0.040715
      46A      0.040715    47A      0.048361    48A      0.048361
      49A      0.058572    50A      0.058572    51A      0.067080
      52A      0.067080    53A      0.099389    54A      0.099389
      55A      0.100919    56A      0.100919    57A      0.114167
      58A      0.114167    59A      0.114917    60A      0.114917
      61A      0.123752    62A      0.123752    63A      0.125290
      64A      0.125290    65A      0.128637    66A      0.128637
      67A      0.132856    68A      0.132856    69A      0.158175
      70A      0.158175    71A      0.161056    72A      0.161056
      73A      0.161305    74A      0.161305    75A      0.163889
      76A      0.163890    77A      0.175156    78A      0.175156
      79A      0.186887    80A      0.186887    81A      0.203875
      82A      0.203875    83A      0.212506    84A      0.212506
      85A      0.250485    86A      0.250485    87A      0.267727
      88A      0.267727    89A      0.278025    90A      0.278025
      91A      0.287781    92A      0.287781    93A      0.293178
      94A      0.293178    95A      0.295724    96A      0.295724
      97A      0.314806    98A      0.314806    99A      0.320426
     100A      0.320426   101A      0.355401   102A      0.355401
     103A      0.357878   104A      0.357878   105A      0.364630
     106A      0.364630   107A      0.382554   108A      0.382555
     109A      0.398862   110A      0.398862   111A      0.409867
     112A      0.409867   113A      0.425427   114A      0.425427
     115A      0.433895   116A      0.433895   117A      0.437185
     118A      0.437185   119A      0.452064   120A      0.452064
     121A      0.471453   122A      0.471453   123A      0.492110
     124A      0.492110   125A      0.504832   126A      0.504832
     127A      0.514881   128A      0.514881   129A      0.524518
     130A      0.524518   131A      0.528637   132A      0.528637
     133A      0.554547   134A      0.554547   135A      0.570506
     136A      0.570506   137A      0.587505   138A      0.587505
     139A      0.591475   140A      0.591475   141A      0.593769
     142A      0.593769   143A      0.608901   144A      0.608901
     145A      0.643488   146A      0.643488   147A      0.644292
     148A      0.644292   149A      0.685106   150A      0.685106
     151A      0.687728   152A      0.687728   153A      0.689902
     154A      0.689902   155A      0.690312   156A      0.690312
     157A      0.694799   158A      0.694799   159A      0.703802
     160A      0.703802   161A      0.746530   162A      0.746530
     163A      0.754787   164A      0.754787   165A      0.766935
     166A      0.766935   167A      0.781375   168A      0.781375
     169A      0.799786   170A      0.799786   171A      0.802679
     172A      0.802679   173A      0.818984   174A      0.818984
     175A      0.831040   176A      0.831040   177A      0.847484
     178A      0.847484   179A      0.880514   180A      0.880514
     181A      0.886380   182A      0.886380   183A      0.894651
     184A      0.894651   185A      0.929242   186A      0.929242
     187A      0.939435   188A      0.939435   189A      0.949277
     190A      0.949277   191A      0.996622   192A      0.996622
     193A      0.998878   194A      0.998878   195A      1.012985
     196A      1.012985   197A      1.033340   198A      1.033340
     199A      1.051163   200A      1.051163   201A      1.089351
     202A      1.089351   203A      1.100415   204A      1.100415
     205A      1.122168   206A      1.122168   207A      1.124013
     208A      1.124013   209A      1.134332   210A      1.134332
     211A      1.158711   212A      1.158711   213A      1.173534
     214A      1.173534   215A      1.235386   216A      1.235386
     217A      1.238775   218A      1.238775   219A      1.309643
     220A      1.309643   221A      1.331118   222A      1.331118
     223A      1.414252   224A      1.414252   225A      1.451496
     226A      1.451496   227A      1.486107   228A      1.486107
     229A      1.488045   230A      1.488045   231A      1.499180
     232A      1.499180   233A      1.502814   234A      1.502814
     235A      1.518222   236A      1.518222   237A      1.572655
     238A      1.572655   239A      1.574162   240A      1.574162
     241A      1.587805   242A      1.587805   243A      1.635952
     244A      1.635952   245A      1.640475   246A      1.640475
     247A      1.648189   248A      1.648189   249A      1.676522
     250A      1.676522   251A      1.716960   252A      1.716960
     253A      1.746567   254A      1.746567   255A      1.755073
     256A      1.755073   257A      1.783732   258A      1.783732
     259A      1.815697   260A      1.815697   261A      1.893293
     262A      1.893293   263A      1.916107   264A      1.916107
     265A      1.964798   266A      1.964798   267A      1.987644
     268A      1.987644   269A      2.031172   270A      2.031172
     271A      2.091518   272A      2.091518   273A      2.100997
     274A      2.100997   275A      2.142923   276A      2.142923
     277A      2.163325   278A      2.163325   279A      2.190458
     280A      2.190458   281A      2.193272   282A      2.193272
     283A      2.200350   284A      2.200350   285A      2.202380
     286A      2.202380   287A      2.227595   288A      2.227595
     289A      2.312731   290A      2.312731   291A      2.355199
     292A      2.355199   293A      2.430926   294A      2.430926
     295A      2.438947   296A      2.438947   297A      2.519349
     298A      2.519349   299A      2.522365   300A      2.522365
     301A      2.584736   302A      2.584736   303A      2.606236
     304A      2.606236   305A      2.665194   306A      2.665194
     307A      2.675379   308A      2.675379   309A      2.686364
     310A      2.686364   311A      2.713954   312A      2.713954
     313A      2.718561   314A      2.718561   315A      2.843984
     316A      2.843984   317A      2.865730   318A      2.865730
     319A      2.939166   320A      2.939166   321A      3.001825
     322A      3.001825   323A      3.017841   324A      3.017841
     325A      3.032156   326A      3.032156   327A      3.094107
     328A      3.094107   329A      3.220286   330A      3.220286
     331A      3.255949   332A      3.255949   333A      3.284850
     334A      3.284850   335A      3.366109   336A      3.366109
     337A      3.413337   338A      3.413337   339A      3.514890
     340A      3.514890   341A      3.590625   342A      3.590625
     343A      3.627738   344A      3.627738   345A      3.977206
     346A      3.977206   347A      4.253455   348A      4.253455

    Final Occupation by Irrep:
              A
    DOCC [    42 ]

  @DF-RHF Final Energy:  -525.27989046030461

   => Energetics <=

    Nuclear Repulsion Energy =            469.8247772288617057
    One-Electron Energy =               -1640.3588968929814200
    Two-Electron Energy =                 645.2542292038151572
    Total Energy =                       -525.2798904603046140

Computation Completed


Properties will be evaluated at   0.000000,   0.000000,   0.000000 [a0]

Properties computed using the SCF density matrix

  Nuclear Dipole Moment: [e a0]
     X:   110.1629      Y: -1310.6173      Z:  -853.0649

  Electronic Dipole Moment: [e a0]
     X:  -110.1629      Y:  1310.6173      Z:   853.0649

  Dipole Moment: [e a0]
     X:     0.0000      Y:     0.0000      Z:    -0.0000     Total:     0.0000

  Dipole Moment: [D]
     X:     0.0000      Y:     0.0000      Z:    -0.0000     Total:     0.0000


*** tstop() called on atl1-1-01-015-9-r.pace.gatech.edu at Mon Nov 29 16:10:53 2021
Module time:
	user time   =      21.94 seconds =       0.37 minutes
	system time =       0.91 seconds =       0.02 minutes
	total time  =         12 seconds =       0.20 minutes
Total time:
	user time   =      21.94 seconds =       0.37 minutes
	system time =       0.91 seconds =       0.02 minutes
	total time  =         12 seconds =       0.20 minutes

  //>>>>>>>>>>>>>>>>>>>>>>>>>>>>>>>>>>>//
  //            Monomer A HF           //
  //<<<<<<<<<<<<<<<<<<<<<<<<<<<<<<<<<<<//


*** tstart() called on atl1-1-01-015-9-r.pace.gatech.edu
*** at Mon Nov 29 16:10:53 2021

   => Loading Basis Set <=

    Name: AUG-CC-PVDZ
    Role: ORBITAL
    Keyword: BASIS
    atoms 1-2, 11-12  entry N          line   218 file /storage/home/hhive1/csargent30/data/miniconda3/envs/psi4/share/psi4/basis/aug-cc-pvdz.gbs
    atoms 3-6, 13-16  entry H          line    40 file /storage/home/hhive1/csargent30/data/miniconda3/envs/psi4/share/psi4/basis/aug-cc-pvdz.gbs
    atoms 7-10, 17-20 entry C          line   182 file /storage/home/hhive1/csargent30/data/miniconda3/envs/psi4/share/psi4/basis/aug-cc-pvdz.gbs


         ---------------------------------------------------------
                                   SCF
               by Justin Turney, Rob Parrish, Andy Simmonett
                          and Daniel G. A. Smith
                              RHF Reference
                        2 Threads,   6675 MiB Core
         ---------------------------------------------------------

  ==> Geometry <==

    Molecular point group: c1
    Full point group: C1

    Geometry (in Bohr), charge = 0, multiplicity = 1:

       Center              X                  Y                   Z               Mass
    ------------   -----------------  -----------------  -----------------  -----------------
         N           -1.330847580000     0.980326580000     0.426270370000    14.003074004430
         N            3.953773330000     0.980326580000     0.426270370000    14.003074004430
         H            3.567136740000     4.352185690000    -0.942309730000     1.007825032230
         H           -0.944210980000     4.352185690000    -0.942309730000     1.007825032230
         H           -0.944210980000    -2.391532530000     1.794850470000     1.007825032230
         H            3.567136740000    -2.391532530000     1.794850470000     1.007825032230
         C            2.622925760000     2.940979740000    -0.426270370000    12.000000000000
         C            0.000000000000     2.940979740000    -0.426270370000    12.000000000000
         C            0.000000000000    -0.980326580000     1.278811120000    12.000000000000
         C            2.622925760000    -0.980326580000     1.278811120000    12.000000000000
      Gh(N)          -1.330847580000   -32.185500760000   -20.737339420000    14.003074004430
      Gh(N)           3.953773330000   -32.185500760000   -20.737339420000    14.003074004430
      Gh(H)           3.567136740000   -28.813641650000   -22.105919520000     1.007825032230
      Gh(H)          -0.944210980000   -28.813641650000   -22.105919520000     1.007825032230
      Gh(H)          -0.944210980000   -35.557359870000   -19.368759320000     1.007825032230
      Gh(H)           3.567136740000   -35.557359870000   -19.368759320000     1.007825032230
      Gh(C)           2.622925760000   -30.224847600000   -21.589880170000    12.000000000000
      Gh(C)           0.000000000000   -30.224847600000   -21.589880170000    12.000000000000
      Gh(C)           0.000000000000   -34.146153920000   -19.884798670000    12.000000000000
      Gh(C)           2.622925760000   -34.146153920000   -19.884798670000    12.000000000000

  Running in c1 symmetry.

  Rotational constants: A =      0.05381  B =      0.00051  C =      0.00051 [cm^-1]
  Rotational constants: A =   1613.22772  B =     15.28196  C =     15.23438 [MHz]
  Nuclear repulsion =  212.551731110485349

  Charge       = 0
  Multiplicity = 1
  Electrons    = 42
  Nalpha       = 21
  Nbeta        = 21

  ==> Algorithm <==

  SCF Algorithm Type is DF.
  DIIS enabled.
  MOM disabled.
  Fractional occupation disabled.
  Guess Type is SAD.
  Energy threshold   = 1.00e-10
  Density threshold  = 1.00e-10
  Integral threshold = 1.00e-12

  ==> Primary Basis <==

  Basis Set: AUG-CC-PVDZ
    Blend: AUG-CC-PVDZ
    Number of shells: 148
    Number of basis functions: 348
    Number of Cartesian functions: 372
    Spherical Harmonics?: true
    Max angular momentum: 2

   => Loading Basis Set <=

    Name: (AUG-CC-PVDZ AUX)
    Role: JKFIT
    Keyword: DF_BASIS_SCF
    atoms 1-2, 11-12  entry N          line   212 file /storage/home/hhive1/csargent30/data/miniconda3/envs/psi4/share/psi4/basis/aug-cc-pvdz-jkfit.gbs
    atoms 3-6, 13-16  entry H          line    70 file /storage/home/hhive1/csargent30/data/miniconda3/envs/psi4/share/psi4/basis/aug-cc-pvdz-jkfit.gbs
    atoms 7-10, 17-20 entry C          line   154 file /storage/home/hhive1/csargent30/data/miniconda3/envs/psi4/share/psi4/basis/aug-cc-pvdz-jkfit.gbs

  ==> Integral Setup <==

  ==> DiskDFJK: Density-Fitted J/K Matrices <==

    J tasked:                  Yes
    K tasked:                  Yes
    wK tasked:                  No
    OpenMP threads:              2
    Integrals threads:           2
    Memory [MiB]:             5006
    Algorithm:                Core
    Integral Cache:           LOAD
    Schwarz Cutoff:          1E-12
    Fitting Condition:       1E-10

   => Auxiliary Basis Set <=

  Basis Set: (AUG-CC-PVDZ AUX)
    Blend: AUG-CC-PVDZ-JKFIT
    Number of shells: 432
    Number of basis functions: 1288
    Number of Cartesian functions: 1492
    Spherical Harmonics?: true
    Max angular momentum: 3

  Minimum eigenvalue in the overlap matrix is 9.4898676806E-06.
  Reciprocal condition number of the overlap matrix is 7.4017856612E-07.
    Using symmetric orthogonalization.

  ==> Pre-Iterations <==

  SCF Guess: Superposition of Atomic Densities via on-the-fly atomic UHF (no occupation information).

   -------------------------
    Irrep   Nso     Nmo
   -------------------------
     A        348     348
   -------------------------
    Total     348     348
   -------------------------

  ==> Iterations <==

                           Total Energy        Delta E     RMS |[F,P]|

   @DF-RHF iter SAD:  -262.32523125894971   -2.62325e+02   0.00000e+00
   @DF-RHF iter   1:  -262.53940798349527   -2.14177e-01   1.11985e-03 DIIS
   @DF-RHF iter   2:  -262.62878837593485   -8.93804e-02   4.10664e-04 DIIS
   @DF-RHF iter   3:  -262.63862292049782   -9.83454e-03   1.28248e-04 DIIS
   @DF-RHF iter   4:  -262.63984767377178   -1.22475e-03   3.77599e-05 DIIS
   @DF-RHF iter   5:  -262.63993727423349   -8.96005e-05   7.55558e-06 DIIS
   @DF-RHF iter   6:  -262.63994382449323   -6.55026e-06   2.45264e-06 DIIS
   @DF-RHF iter   7:  -262.63994477686708   -9.52374e-07   6.40130e-07 DIIS
   @DF-RHF iter   8:  -262.63994485075472   -7.38876e-08   9.91693e-08 DIIS
   @DF-RHF iter   9:  -262.63994485274020   -1.98548e-09   1.88228e-08 DIIS
   @DF-RHF iter  10:  -262.63994485281194   -7.17364e-11   3.19151e-09 DIIS
   @DF-RHF iter  11:  -262.63994485281364   -1.70530e-12   5.22317e-10 DIIS
   @DF-RHF iter  12:  -262.63994485281370   -5.68434e-14   9.54361e-11 DIIS
  Energy and wave function converged.


  ==> Post-Iterations <==

    Orbital Energies [Eh]
    ---------------------

    Doubly Occupied:

       1A    -15.598072     2A    -15.598053     3A    -11.274239
       4A    -11.274194     5A    -11.272975     6A    -11.272969
       7A     -1.313347     8A     -1.224176     9A     -1.076803
      10A     -0.922662    11A     -0.919282    12A     -0.760637
      13A     -0.738402    14A     -0.706214    15A     -0.647687
      16A     -0.580711    17A     -0.574369    18A     -0.497113
      19A     -0.434288    20A     -0.415855    21A     -0.359924

    Virtual:

      22A      0.022330    23A      0.034497    24A      0.039409
      25A      0.040739    26A      0.041080    27A      0.048384
      28A      0.058591    29A      0.058755    30A      0.067113
      31A      0.079570    32A      0.084947    33A      0.099419
      34A      0.100948    35A      0.103896    36A      0.108404
      37A      0.108750    38A      0.114201    39A      0.114951
      40A      0.122390    41A      0.123776    42A      0.125322
      43A      0.125487    44A      0.128661    45A      0.130833
      46A      0.132889    47A      0.134051    48A      0.152007
      49A      0.152925    50A      0.158199    51A      0.159237
      52A      0.161084    53A      0.161326    54A      0.163914
      55A      0.175179    56A      0.176646    57A      0.186918
      58A      0.197696    59A      0.203797    60A      0.203908
      61A      0.206553    62A      0.212538    63A      0.222278
      64A      0.233507    65A      0.239335    66A      0.250517
      67A      0.255112    68A      0.267756    69A      0.270672
      70A      0.278056    71A      0.287812    72A      0.293207
      73A      0.295749    74A      0.302218    75A      0.314832
      76A      0.320457    77A      0.320535    78A      0.328054
      79A      0.331194    80A      0.344015    81A      0.355428
      82A      0.357908    83A      0.364661    84A      0.380395
      85A      0.382583    86A      0.385528    87A      0.398891
      88A      0.401167    89A      0.409895    90A      0.419167
      91A      0.424842    92A      0.425453    93A      0.433925
      94A      0.437212    95A      0.441826    96A      0.452092
      97A      0.460549    98A      0.460997    99A      0.471483
     100A      0.475979   101A      0.478714   102A      0.492140
     103A      0.504862   104A      0.507718   105A      0.514914
     106A      0.523663   107A      0.524547   108A      0.528668
     109A      0.535626   110A      0.554577   111A      0.557739
     112A      0.561407   113A      0.564388   114A      0.570535
     115A      0.581801   116A      0.587535   117A      0.591506
     118A      0.593799   119A      0.595906   120A      0.608929
     121A      0.615033   122A      0.620052   123A      0.636257
     124A      0.643517   125A      0.644321   126A      0.649249
     127A      0.651383   128A      0.679308   129A      0.685136
     130A      0.685210   131A      0.687758   132A      0.689932
     133A      0.690342   134A      0.694828   135A      0.703830
     136A      0.719784   137A      0.728283   138A      0.746558
     139A      0.746680   140A      0.754817   141A      0.766965
     142A      0.775573   143A      0.781406   144A      0.793525
     145A      0.799815   146A      0.802710   147A      0.810987
     148A      0.811872   149A      0.819016   150A      0.824645
     151A      0.831071   152A      0.847513   153A      0.847954
     154A      0.849078   155A      0.868499   156A      0.880544
     157A      0.886410   158A      0.888041   159A      0.894682
     160A      0.905996   161A      0.929007   162A      0.929272
     163A      0.939466   164A      0.947584   165A      0.949307
     166A      0.970672   167A      0.976827   168A      0.986530
     169A      0.996652   170A      0.998908   171A      1.013015
     172A      1.032313   173A      1.033370   174A      1.046822
     175A      1.051194   176A      1.076158   177A      1.089381
     178A      1.090170   179A      1.100445   180A      1.122199
     181A      1.124044   182A      1.130556   183A      1.134362
     184A      1.140158   185A      1.158741   186A      1.168481
     187A      1.170569   188A      1.173565   189A      1.192100
     190A      1.193132   191A      1.200364   192A      1.222210
     193A      1.235416   194A      1.238804   195A      1.250920
     196A      1.307449   197A      1.309674   198A      1.318152
     199A      1.326306   200A      1.329503   201A      1.331148
     202A      1.346699   203A      1.389108   204A      1.414282
     205A      1.448282   206A      1.451526   207A      1.455352
     208A      1.479026   209A      1.486137   210A      1.487098
     211A      1.488075   212A      1.499211   213A      1.502846
     214A      1.518252   215A      1.572686   216A      1.574192
     217A      1.587836   218A      1.635982   219A      1.640505
     220A      1.648219   221A      1.659134   222A      1.676552
     223A      1.697959   224A      1.716991   225A      1.746597
     226A      1.755104   227A      1.783762   228A      1.815727
     229A      1.893323   230A      1.916137   231A      1.964829
     232A      1.987674   233A      2.031202   234A      2.070122
     235A      2.091548   236A      2.101028   237A      2.102658
     238A      2.119338   239A      2.142953   240A      2.156571
     241A      2.159085   242A      2.163355   243A      2.190488
     244A      2.193301   245A      2.194755   246A      2.200380
     247A      2.202410   248A      2.227626   249A      2.234669
     250A      2.241098   251A      2.249555   252A      2.309910
     253A      2.312761   254A      2.319441   255A      2.355229
     256A      2.384700   257A      2.419105   258A      2.430957
     259A      2.435308   260A      2.438061   261A      2.438977
     262A      2.472571   263A      2.486620   264A      2.498217
     265A      2.519379   266A      2.522395   267A      2.524963
     268A      2.545890   269A      2.568223   270A      2.584766
     271A      2.592268   272A      2.606266   273A      2.625868
     274A      2.665224   275A      2.675409   276A      2.686395
     277A      2.713985   278A      2.716793   279A      2.718591
     280A      2.726546   281A      2.767829   282A      2.844014
     283A      2.865761   284A      2.903932   285A      2.939196
     286A      2.947122   287A      2.955646   288A      2.973236
     289A      3.001855   290A      3.017872   291A      3.032186
     292A      3.058226   293A      3.065126   294A      3.094137
     295A      3.113765   296A      3.220316   297A      3.245624
     298A      3.255980   299A      3.284880   300A      3.289576
     301A      3.321857   302A      3.337636   303A      3.340383
     304A      3.348554   305A      3.351278   306A      3.366140
     307A      3.412526   308A      3.413367   309A      3.470682
     310A      3.501881   311A      3.514920   312A      3.521289
     313A      3.590655   314A      3.604364   315A      3.605570
     316A      3.627769   317A      3.700411   318A      3.818851
     319A      3.830614   320A      3.940895   321A      3.969023
     322A      3.977236   323A      4.011330   324A      4.194684
     325A      4.242177   326A      4.253485   327A      4.441916
     328A      4.546756   329A      4.579203   330A      4.867566
     331A      4.976070   332A      5.057779   333A      5.261638
     334A      5.316466   335A      5.630125   336A      5.691251
     337A      5.827075   338A      5.952560   339A      6.283755
     340A      6.306817   341A      6.453694   342A      6.631128
     343A     18.125644   344A     18.207906   345A     19.017502
     346A     19.342927   347A     25.286988   348A     25.374708

    Final Occupation by Irrep:
              A
    DOCC [    21 ]

  @DF-RHF Final Energy:  -262.63994485281370

   => Energetics <=

    Nuclear Repulsion Energy =            212.5517311104853491
    One-Electron Energy =                -775.4594096428694456
    Two-Electron Energy =                 300.2677336795704264
    Total Energy =                       -262.6399448528136986

Computation Completed


Properties will be evaluated at   0.000000,   0.000000,   0.000000 [a0]

Properties computed using the SCF density matrix

  Nuclear Dipole Moment: [e a0]
     X:    55.0814      Y:    41.1737      Z:    17.9034

  Electronic Dipole Moment: [e a0]
     X:   -55.0814      Y:   -41.1737      Z:   -17.9034

  Dipole Moment: [e a0]
     X:     0.0000      Y:     0.0000      Z:    -0.0000     Total:     0.0000

  Dipole Moment: [D]
     X:     0.0000      Y:     0.0000      Z:    -0.0000     Total:     0.0000


*** tstop() called on atl1-1-01-015-9-r.pace.gatech.edu at Mon Nov 29 16:11:01 2021
Module time:
	user time   =      13.81 seconds =       0.23 minutes
	system time =       0.46 seconds =       0.01 minutes
	total time  =          8 seconds =       0.13 minutes
Total time:
	user time   =      35.77 seconds =       0.60 minutes
	system time =       1.37 seconds =       0.02 minutes
	total time  =         20 seconds =       0.33 minutes

  //>>>>>>>>>>>>>>>>>>>>>>>>>>>>>>>>>>>//
  //            Monomer B HF           //
  //<<<<<<<<<<<<<<<<<<<<<<<<<<<<<<<<<<<//


*** tstart() called on atl1-1-01-015-9-r.pace.gatech.edu
*** at Mon Nov 29 16:11:01 2021

   => Loading Basis Set <=

    Name: AUG-CC-PVDZ
    Role: ORBITAL
    Keyword: BASIS
    atoms 1-2, 11-12  entry N          line   218 file /storage/home/hhive1/csargent30/data/miniconda3/envs/psi4/share/psi4/basis/aug-cc-pvdz.gbs
    atoms 3-6, 13-16  entry H          line    40 file /storage/home/hhive1/csargent30/data/miniconda3/envs/psi4/share/psi4/basis/aug-cc-pvdz.gbs
    atoms 7-10, 17-20 entry C          line   182 file /storage/home/hhive1/csargent30/data/miniconda3/envs/psi4/share/psi4/basis/aug-cc-pvdz.gbs


         ---------------------------------------------------------
                                   SCF
               by Justin Turney, Rob Parrish, Andy Simmonett
                          and Daniel G. A. Smith
                              RHF Reference
                        2 Threads,   6675 MiB Core
         ---------------------------------------------------------

  ==> Geometry <==

    Molecular point group: c1
    Full point group: C1

    Geometry (in Bohr), charge = 0, multiplicity = 1:

       Center              X                  Y                   Z               Mass
    ------------   -----------------  -----------------  -----------------  -----------------
      Gh(N)          -1.330847580000     0.980326580000     0.426270370000    14.003074004430
      Gh(N)           3.953773330000     0.980326580000     0.426270370000    14.003074004430
      Gh(H)           3.567136740000     4.352185690000    -0.942309730000     1.007825032230
      Gh(H)          -0.944210980000     4.352185690000    -0.942309730000     1.007825032230
      Gh(H)          -0.944210980000    -2.391532530000     1.794850470000     1.007825032230
      Gh(H)           3.567136740000    -2.391532530000     1.794850470000     1.007825032230
      Gh(C)           2.622925760000     2.940979740000    -0.426270370000    12.000000000000
      Gh(C)           0.000000000000     2.940979740000    -0.426270370000    12.000000000000
      Gh(C)           0.000000000000    -0.980326580000     1.278811120000    12.000000000000
      Gh(C)           2.622925760000    -0.980326580000     1.278811120000    12.000000000000
         N           -1.330847580000   -32.185500760000   -20.737339420000    14.003074004430
         N            3.953773330000   -32.185500760000   -20.737339420000    14.003074004430
         H            3.567136740000   -28.813641650000   -22.105919520000     1.007825032230
         H           -0.944210980000   -28.813641650000   -22.105919520000     1.007825032230
         H           -0.944210980000   -35.557359870000   -19.368759320000     1.007825032230
         H            3.567136740000   -35.557359870000   -19.368759320000     1.007825032230
         C            2.622925760000   -30.224847600000   -21.589880170000    12.000000000000
         C            0.000000000000   -30.224847600000   -21.589880170000    12.000000000000
         C            0.000000000000   -34.146153920000   -19.884798670000    12.000000000000
         C            2.622925760000   -34.146153920000   -19.884798670000    12.000000000000

  Running in c1 symmetry.

  Rotational constants: A =      0.05381  B =      0.00051  C =      0.00051 [cm^-1]
  Rotational constants: A =   1613.22772  B =     15.28196  C =     15.23438 [MHz]
  Nuclear repulsion =  212.551731042300503

  Charge       = 0
  Multiplicity = 1
  Electrons    = 42
  Nalpha       = 21
  Nbeta        = 21

  ==> Algorithm <==

  SCF Algorithm Type is DF.
  DIIS enabled.
  MOM disabled.
  Fractional occupation disabled.
  Guess Type is SAD.
  Energy threshold   = 1.00e-10
  Density threshold  = 1.00e-10
  Integral threshold = 1.00e-12

  ==> Primary Basis <==

  Basis Set: AUG-CC-PVDZ
    Blend: AUG-CC-PVDZ
    Number of shells: 148
    Number of basis functions: 348
    Number of Cartesian functions: 372
    Spherical Harmonics?: true
    Max angular momentum: 2

   => Loading Basis Set <=

    Name: (AUG-CC-PVDZ AUX)
    Role: JKFIT
    Keyword: DF_BASIS_SCF
    atoms 1-2, 11-12  entry N          line   212 file /storage/home/hhive1/csargent30/data/miniconda3/envs/psi4/share/psi4/basis/aug-cc-pvdz-jkfit.gbs
    atoms 3-6, 13-16  entry H          line    70 file /storage/home/hhive1/csargent30/data/miniconda3/envs/psi4/share/psi4/basis/aug-cc-pvdz-jkfit.gbs
    atoms 7-10, 17-20 entry C          line   154 file /storage/home/hhive1/csargent30/data/miniconda3/envs/psi4/share/psi4/basis/aug-cc-pvdz-jkfit.gbs

  ==> Integral Setup <==

  ==> DiskDFJK: Density-Fitted J/K Matrices <==

    J tasked:                  Yes
    K tasked:                  Yes
    wK tasked:                  No
    OpenMP threads:              2
    Integrals threads:           2
    Memory [MiB]:             5006
    Algorithm:                Core
    Integral Cache:           LOAD
    Schwarz Cutoff:          1E-12
    Fitting Condition:       1E-10

   => Auxiliary Basis Set <=

  Basis Set: (AUG-CC-PVDZ AUX)
    Blend: AUG-CC-PVDZ-JKFIT
    Number of shells: 432
    Number of basis functions: 1288
    Number of Cartesian functions: 1492
    Spherical Harmonics?: true
    Max angular momentum: 3

  Minimum eigenvalue in the overlap matrix is 9.4898676806E-06.
  Reciprocal condition number of the overlap matrix is 7.4017856612E-07.
    Using symmetric orthogonalization.

  ==> Pre-Iterations <==

  SCF Guess: Superposition of Atomic Densities via on-the-fly atomic UHF (no occupation information).

   -------------------------
    Irrep   Nso     Nmo
   -------------------------
     A        348     348
   -------------------------
    Total     348     348
   -------------------------

  ==> Iterations <==

                           Total Energy        Delta E     RMS |[F,P]|

   @DF-RHF iter SAD:  -262.32523125258029   -2.62325e+02   0.00000e+00
   @DF-RHF iter   1:  -262.53940798325289   -2.14177e-01   1.11985e-03 DIIS
   @DF-RHF iter   2:  -262.62878837556190   -8.93804e-02   4.10664e-04 DIIS
   @DF-RHF iter   3:  -262.63862292007639   -9.83454e-03   1.28248e-04 DIIS
   @DF-RHF iter   4:  -262.63984767335057   -1.22475e-03   3.77599e-05 DIIS
   @DF-RHF iter   5:  -262.63993727381279   -8.96005e-05   7.55558e-06 DIIS
   @DF-RHF iter   6:  -262.63994382407202   -6.55026e-06   2.45264e-06 DIIS
   @DF-RHF iter   7:  -262.63994477644565   -9.52374e-07   6.40130e-07 DIIS
   @DF-RHF iter   8:  -262.63994485033385   -7.38882e-08   9.91693e-08 DIIS
   @DF-RHF iter   9:  -262.63994485232035   -1.98651e-09   1.88228e-08 DIIS
   @DF-RHF iter  10:  -262.63994485239039   -7.00311e-11   3.19151e-09 DIIS
   @DF-RHF iter  11:  -262.63994485239294   -2.55795e-12   5.22317e-10 DIIS
   @DF-RHF iter  12:  -262.63994485239323   -2.84217e-13   9.54356e-11 DIIS
  Energy and wave function converged.


  ==> Post-Iterations <==

    Orbital Energies [Eh]
    ---------------------

    Doubly Occupied:

       1A    -15.598072     2A    -15.598053     3A    -11.274239
       4A    -11.274194     5A    -11.272975     6A    -11.272969
       7A     -1.313347     8A     -1.224176     9A     -1.076803
      10A     -0.922662    11A     -0.919282    12A     -0.760637
      13A     -0.738402    14A     -0.706214    15A     -0.647687
      16A     -0.580711    17A     -0.574369    18A     -0.497113
      19A     -0.434288    20A     -0.415855    21A     -0.359924

    Virtual:

      22A      0.022330    23A      0.034497    24A      0.039409
      25A      0.040739    26A      0.041080    27A      0.048384
      28A      0.058591    29A      0.058755    30A      0.067113
      31A      0.079570    32A      0.084947    33A      0.099419
      34A      0.100948    35A      0.103896    36A      0.108404
      37A      0.108750    38A      0.114201    39A      0.114951
      40A      0.122390    41A      0.123776    42A      0.125322
      43A      0.125487    44A      0.128661    45A      0.130833
      46A      0.132889    47A      0.134051    48A      0.152007
      49A      0.152925    50A      0.158199    51A      0.159237
      52A      0.161084    53A      0.161326    54A      0.163914
      55A      0.175179    56A      0.176646    57A      0.186918
      58A      0.197696    59A      0.203797    60A      0.203908
      61A      0.206553    62A      0.212538    63A      0.222278
      64A      0.233507    65A      0.239335    66A      0.250517
      67A      0.255112    68A      0.267756    69A      0.270672
      70A      0.278056    71A      0.287812    72A      0.293207
      73A      0.295749    74A      0.302218    75A      0.314832
      76A      0.320457    77A      0.320535    78A      0.328054
      79A      0.331194    80A      0.344015    81A      0.355428
      82A      0.357908    83A      0.364661    84A      0.380395
      85A      0.382583    86A      0.385528    87A      0.398891
      88A      0.401167    89A      0.409895    90A      0.419167
      91A      0.424842    92A      0.425453    93A      0.433925
      94A      0.437212    95A      0.441826    96A      0.452092
      97A      0.460549    98A      0.460997    99A      0.471483
     100A      0.475979   101A      0.478714   102A      0.492140
     103A      0.504862   104A      0.507718   105A      0.514914
     106A      0.523663   107A      0.524547   108A      0.528668
     109A      0.535626   110A      0.554577   111A      0.557739
     112A      0.561407   113A      0.564388   114A      0.570535
     115A      0.581801   116A      0.587535   117A      0.591506
     118A      0.593799   119A      0.595906   120A      0.608929
     121A      0.615033   122A      0.620052   123A      0.636257
     124A      0.643517   125A      0.644321   126A      0.649249
     127A      0.651383   128A      0.679308   129A      0.685136
     130A      0.685210   131A      0.687758   132A      0.689932
     133A      0.690342   134A      0.694828   135A      0.703829
     136A      0.719784   137A      0.728283   138A      0.746558
     139A      0.746680   140A      0.754817   141A      0.766965
     142A      0.775573   143A      0.781406   144A      0.793525
     145A      0.799815   146A      0.802710   147A      0.810987
     148A      0.811872   149A      0.819016   150A      0.824645
     151A      0.831071   152A      0.847513   153A      0.847954
     154A      0.849078   155A      0.868499   156A      0.880544
     157A      0.886410   158A      0.888041   159A      0.894682
     160A      0.905996   161A      0.929007   162A      0.929272
     163A      0.939466   164A      0.947584   165A      0.949307
     166A      0.970672   167A      0.976827   168A      0.986530
     169A      0.996652   170A      0.998908   171A      1.013015
     172A      1.032313   173A      1.033370   174A      1.046822
     175A      1.051194   176A      1.076158   177A      1.089381
     178A      1.090170   179A      1.100445   180A      1.122199
     181A      1.124044   182A      1.130556   183A      1.134362
     184A      1.140158   185A      1.158740   186A      1.168481
     187A      1.170569   188A      1.173565   189A      1.192100
     190A      1.193132   191A      1.200364   192A      1.222210
     193A      1.235416   194A      1.238804   195A      1.250920
     196A      1.307449   197A      1.309674   198A      1.318152
     199A      1.326306   200A      1.329503   201A      1.331148
     202A      1.346699   203A      1.389108   204A      1.414282
     205A      1.448282   206A      1.451526   207A      1.455352
     208A      1.479026   209A      1.486137   210A      1.487098
     211A      1.488075   212A      1.499211   213A      1.502846
     214A      1.518252   215A      1.572686   216A      1.574192
     217A      1.587836   218A      1.635982   219A      1.640505
     220A      1.648219   221A      1.659134   222A      1.676552
     223A      1.697959   224A      1.716991   225A      1.746597
     226A      1.755104   227A      1.783762   228A      1.815727
     229A      1.893323   230A      1.916137   231A      1.964829
     232A      1.987674   233A      2.031202   234A      2.070122
     235A      2.091548   236A      2.101028   237A      2.102658
     238A      2.119338   239A      2.142953   240A      2.156571
     241A      2.159085   242A      2.163355   243A      2.190488
     244A      2.193301   245A      2.194755   246A      2.200380
     247A      2.202410   248A      2.227626   249A      2.234669
     250A      2.241098   251A      2.249555   252A      2.309910
     253A      2.312761   254A      2.319441   255A      2.355229
     256A      2.384700   257A      2.419105   258A      2.430957
     259A      2.435308   260A      2.438061   261A      2.438977
     262A      2.472571   263A      2.486620   264A      2.498217
     265A      2.519379   266A      2.522395   267A      2.524963
     268A      2.545890   269A      2.568223   270A      2.584766
     271A      2.592268   272A      2.606266   273A      2.625868
     274A      2.665224   275A      2.675409   276A      2.686395
     277A      2.713985   278A      2.716793   279A      2.718591
     280A      2.726546   281A      2.767829   282A      2.844014
     283A      2.865761   284A      2.903932   285A      2.939196
     286A      2.947122   287A      2.955646   288A      2.973236
     289A      3.001855   290A      3.017872   291A      3.032186
     292A      3.058226   293A      3.065126   294A      3.094137
     295A      3.113765   296A      3.220316   297A      3.245624
     298A      3.255980   299A      3.284880   300A      3.289576
     301A      3.321857   302A      3.337636   303A      3.340383
     304A      3.348554   305A      3.351278   306A      3.366140
     307A      3.412526   308A      3.413367   309A      3.470682
     310A      3.501881   311A      3.514920   312A      3.521289
     313A      3.590655   314A      3.604364   315A      3.605570
     316A      3.627769   317A      3.700411   318A      3.818851
     319A      3.830614   320A      3.940895   321A      3.969023
     322A      3.977236   323A      4.011330   324A      4.194684
     325A      4.242177   326A      4.253485   327A      4.441916
     328A      4.546756   329A      4.579203   330A      4.867566
     331A      4.976070   332A      5.057779   333A      5.261638
     334A      5.316466   335A      5.630125   336A      5.691251
     337A      5.827075   338A      5.952560   339A      6.283755
     340A      6.306817   341A      6.453694   342A      6.631128
     343A     18.125644   344A     18.207906   345A     19.017502
     346A     19.342927   347A     25.286988   348A     25.374708

    Final Occupation by Irrep:
              A
    DOCC [    21 ]

  @DF-RHF Final Energy:  -262.63994485239323

   => Energetics <=

    Nuclear Repulsion Energy =            212.5517310423005028
    One-Electron Energy =                -775.4594095057871073
    Two-Electron Energy =                 300.2677336110933766
    Total Energy =                       -262.6399448523932278

Computation Completed


Properties will be evaluated at   0.000000,   0.000000,   0.000000 [a0]

Properties computed using the SCF density matrix

  Nuclear Dipole Moment: [e a0]
     X:    55.0814      Y: -1351.7910      Z:  -870.9683

  Electronic Dipole Moment: [e a0]
     X:   -55.0814      Y:  1351.7910      Z:   870.9683

  Dipole Moment: [e a0]
     X:     0.0000      Y:    -0.0000      Z:     0.0000     Total:     0.0000

  Dipole Moment: [D]
     X:     0.0000      Y:    -0.0000      Z:     0.0000     Total:     0.0000


*** tstop() called on atl1-1-01-015-9-r.pace.gatech.edu at Mon Nov 29 16:11:09 2021
Module time:
	user time   =      13.82 seconds =       0.23 minutes
	system time =       0.46 seconds =       0.01 minutes
	total time  =          8 seconds =       0.13 minutes
Total time:
	user time   =      49.60 seconds =       0.83 minutes
	system time =       1.83 seconds =       0.03 minutes
	total time  =         28 seconds =       0.47 minutes
  Constructing Basis Sets for SAPT...

   => Loading Basis Set <=

    Name: (AUG-CC-PVDZ AUX)
    Role: RIFIT
    Keyword: DF_BASIS_SAPT
    atoms 1-2, 11-12  entry N          line   158 file /storage/home/hhive1/csargent30/data/miniconda3/envs/psi4/share/psi4/basis/aug-cc-pvdz-ri.gbs
    atoms 3-6, 13-16  entry H          line    30 file /storage/home/hhive1/csargent30/data/miniconda3/envs/psi4/share/psi4/basis/aug-cc-pvdz-ri.gbs
    atoms 7-10, 17-20 entry C          line   112 file /storage/home/hhive1/csargent30/data/miniconda3/envs/psi4/share/psi4/basis/aug-cc-pvdz-ri.gbs


  //>>>>>>>>>>>>>>>>>>>>>>>>>>>>>>>>>>>//
  //               SAPT0               //
  //<<<<<<<<<<<<<<<<<<<<<<<<<<<<<<<<<<<//


*** tstart() called on atl1-1-01-015-9-r.pace.gatech.edu
*** at Mon Nov 29 16:11:09 2021

        SAPT0
    Ed Hohenstein
     6 June 2009

      Orbital Information
  --------------------------
    NSO        =       348
    NMO        =       348
    NRI        =      1048
    NOCC A     =        21
    NOCC B     =        21
    FOCC A     =         6
    FOCC B     =         6
    NVIR A     =       327
    NVIR B     =       327

    Elst10,r            =    -0.000000761532 [Eh]
    Exch10              =     0.000000000000 [Eh]
    Exch10 (S^2)        =     0.000000000000 [Eh]

    Iter     Energy [mEh]          dE [mEh]         Residual      Time [s]
       1      -0.00000055       0.000000546       0.007641621             1
       2      -0.00000048      -0.000000065       0.001604244             1
       3      -0.00000051       0.000000029       0.000852807             1
       4      -0.00000052       0.000000014       0.000210268             2
       5      -0.00000052      -0.000000003       0.000090504             2
       6      -0.00000052       0.000000000       0.000024856             3
       7      -0.00000052       0.000000000       0.000006891             3
       8      -0.00000052      -0.000000000       0.000001898             3
       9      -0.00000052      -0.000000000       0.000000494             4

    CHF Iterations converged


    Iter     Energy [mEh]          dE [mEh]         Residual      Time [s]
       1      -0.00000055       0.000000546       0.007641621             0
       2      -0.00000048      -0.000000065       0.001604244             0
       3      -0.00000051       0.000000029       0.000852807             1
       4      -0.00000052       0.000000014       0.000210268             1
       5      -0.00000052      -0.000000003       0.000090504             1
       6      -0.00000052       0.000000000       0.000024856             2
       7      -0.00000052       0.000000000       0.000006891             2
       8      -0.00000052      -0.000000000       0.000001898             3
       9      -0.00000052      -0.000000000       0.000000494             3

    CHF Iterations converged

    Ind20,r (A<-B)      =    -0.000000000522 [Eh]
    Ind20,r (B<-A)      =    -0.000000000522 [Eh]
    Ind20,r             =    -0.000000001043 [Eh]
    Exch-Ind20,r (A<-B) =     0.000000000000 [Eh]
    Exch-Ind20,r (B<-A) =     0.000000000000 [Eh]
    Exch-Ind20,r        =     0.000000000000 [Eh]
    Disp20              =    -0.000000394545 [Eh]
    Disp20 (SS)         =    -0.000000197273 [Eh]
    Disp20 (OS)         =    -0.000000197273 [Eh]
    Exch-Disp20         =     0.000000000000 [Eh]
    Exch-Disp20 (SS)    =     0.000000000000 [Eh]
    Exch-Disp20 (OS)    =     0.000000000000 [Eh]

    SAPT Results
  --------------------------------------------------------------------------------------------------------
    Electrostatics                 -0.00076153 [mEh]      -0.00047787 [kcal/mol]      -0.00199940 [kJ/mol]
      Elst10,r                     -0.00076153 [mEh]      -0.00047787 [kcal/mol]      -0.00199940 [kJ/mol]

    Exchange                        0.00000000 [mEh]       0.00000000 [kcal/mol]       0.00000000 [kJ/mol]
      Exch10                        0.00000000 [mEh]       0.00000000 [kcal/mol]       0.00000000 [kJ/mol]
      Exch10(S^2)                   0.00000000 [mEh]       0.00000000 [kcal/mol]       0.00000000 [kJ/mol]

    Induction                       0.00000643 [mEh]       0.00000404 [kcal/mol]       0.00001689 [kJ/mol]
      Ind20,r                      -0.00000104 [mEh]      -0.00000065 [kcal/mol]      -0.00000274 [kJ/mol]
      Exch-Ind20,r                  0.00000000 [mEh]       0.00000000 [kcal/mol]       0.00000000 [kJ/mol]
      delta HF,r (2)                0.00000748 [mEh]       0.00000469 [kcal/mol]       0.00001963 [kJ/mol]

    Dispersion                     -0.00039455 [mEh]      -0.00024758 [kcal/mol]      -0.00103588 [kJ/mol]
      Disp20                       -0.00039455 [mEh]      -0.00024758 [kcal/mol]      -0.00103588 [kJ/mol]
      Exch-Disp20                   0.00000000 [mEh]       0.00000000 [kcal/mol]       0.00000000 [kJ/mol]
      Disp20 (SS)                  -0.00019727 [mEh]      -0.00012379 [kcal/mol]      -0.00051794 [kJ/mol]
      Disp20 (OS)                  -0.00019727 [mEh]      -0.00012379 [kcal/mol]      -0.00051794 [kJ/mol]
      Exch-Disp20 (SS)              0.00000000 [mEh]       0.00000000 [kcal/mol]       0.00000000 [kJ/mol]
      Exch-Disp20 (OS)              0.00000000 [mEh]       0.00000000 [kcal/mol]       0.00000000 [kJ/mol]

  Total HF                         -0.00075510 [mEh]      -0.00047383 [kcal/mol]      -0.00198251 [kJ/mol]
  Total SAPT0                      -0.00114964 [mEh]      -0.00072141 [kcal/mol]      -0.00301839 [kJ/mol]

  Special recipe for scaled SAPT0 (see Manual):
    Electrostatics sSAPT0          -0.00076153 [mEh]      -0.00047787 [kcal/mol]      -0.00199940 [kJ/mol]
    Exchange sSAPT0                 0.00000000 [mEh]       0.00000000 [kcal/mol]       0.00000000 [kJ/mol]
    Induction sSAPT0                0.00000643 [mEh]       0.00000404 [kcal/mol]       0.00001689 [kJ/mol]
    Dispersion sSAPT0              -0.00039455 [mEh]      -0.00024758 [kcal/mol]      -0.00103588 [kJ/mol]
  Total sSAPT0                     -0.00114964 [mEh]      -0.00072141 [kcal/mol]      -0.00301839 [kJ/mol]
  --------------------------------------------------------------------------------------------------------

*** tstop() called on atl1-1-01-015-9-r.pace.gatech.edu at Mon Nov 29 16:11:32 2021
Module time:
	user time   =      35.75 seconds =       0.60 minutes
	system time =       7.91 seconds =       0.13 minutes
	total time  =         23 seconds =       0.38 minutes
Total time:
	user time   =      85.61 seconds =       1.43 minutes
	system time =       9.75 seconds =       0.16 minutes
	total time  =         51 seconds =       0.85 minutes


Warning! sapt0 does not have an associated derived wavefunction.The returned wavefunction is the dimer SCF wavefunction.


    Psi4 stopped on: Monday, 29 November 2021 04:11PM
    Psi4 wall time for execution: 0:00:52.02

*** Psi4 exiting successfully. Buy a developer a beer!
