
    -----------------------------------------------------------------------
          Psi4: An Open-Source Ab Initio Electronic Structure Package
                               Psi4 1.4.1 release

                         Git: Rev {HEAD} cd00f19 


    D. G. A. Smith, L. A. Burns, A. C. Simmonett, R. M. Parrish,
    M. C. Schieber, R. Galvelis, P. Kraus, H. Kruse, R. Di Remigio,
    A. Alenaizan, A. M. James, S. Lehtola, J. P. Misiewicz, M. Scheurer,
    R. A. Shaw, J. B. Schriber, Y. Xie, Z. L. Glick, D. A. Sirianni,
    J. S. O'Brien, J. M. Waldrop, A. Kumar, E. G. Hohenstein,
    B. P. Pritchard, B. R. Brooks, H. F. Schaefer III, A. Yu. Sokolov,
    K. Patkowski, A. E. DePrince III, U. Bozkaya, R. A. King,
    F. A. Evangelista, J. M. Turney, T. D. Crawford, C. D. Sherrill,
    J. Chem. Phys. 152(18) 184108 (2020). https://doi.org/10.1063/5.0006002

                            Additional Code Authors
    E. T. Seidl, C. L. Janssen, E. F. Valeev, M. L. Leininger,
    J. F. Gonthier, R. M. Richard, H. R. McAlexander, M. Saitow, X. Wang,
    P. Verma, and M. H. Lechner

             Previous Authors, Complete List of Code Contributors,
                       and Citations for Specific Modules
    https://github.com/psi4/psi4/blob/master/codemeta.json
    https://github.com/psi4/psi4/graphs/contributors
    http://psicode.org/psi4manual/master/introduction.html#citing-psifour

    -----------------------------------------------------------------------


    Psi4 started on: Monday, 29 November 2021 04:18PM

    Process ID: 49222
    Host:       atl1-1-01-013-8-r.pace.gatech.edu
    PSIDATADIR: /storage/home/hhive1/csargent30/data/miniconda3/envs/psi4/share/psi4
    Memory:     500.0 MiB
    Threads:    2
    
  ==> Input File <==

--------------------------------------------------------------------------
# PSI4 file produced by CrystaLattE

# Generated from:               pyrazine.xyz
# Psithon input for N-mer:      2mer-0+262
# Number of atoms per monomer:  [10, 10]
# Number of replicas:           4
# COM priority:                 1.984160262274e-05
# Minimum COM separations:      19.547 
# Separation priority:          3.306871981233e-05
# Minimum monomer separations:  16.487 
# Cutoff priority:              1.061426297210e-06
# Nuclear repulsion energy:     472.9851392259279

memory 7 GB

molecule Dimer_0_262 {
  N           -1.33084758       0.98032658       0.42627037 
  N            3.95377333       0.98032658       0.42627037 
  H            3.56713674       4.35218569      -0.94230973 
  H           -0.94421098       4.35218569      -0.94230973 
  H           -0.94421098      -2.39153253       1.79485047 
  H            3.56713674      -2.39153253       1.79485047 
  C            2.62292576       2.94097974      -0.42627037 
  C            0.00000000       2.94097974      -0.42627037 
  C            0.00000000      -0.98032658       1.27881112 
  C            2.62292576      -0.98032658       1.27881112 
--
  N          -36.57575160     -10.07494920       0.42627037 
  N          -31.29113069     -10.07494920       0.42627037 
  H          -31.67776728      -6.70309009      -0.94230973 
  H          -36.18911500      -6.70309009      -0.94230973 
  H          -36.18911500     -13.44680831       1.79485047 
  H          -31.67776728     -13.44680831       1.79485047 
  C          -32.62197826      -8.11429604      -0.42627037 
  C          -35.24490402      -8.11429604      -0.42627037 
  C          -35.24490402     -12.03560236       1.27881112 
  C          -32.62197826     -12.03560236       1.27881112 
units = au
no_com
no_reorient
}

set {
  e_convergence 10
  d_convergence 10
  scf_type df
  mp2_type df
  cc_type df
  freeze_core true
}

energy('sapt0/aug-cc-pvdz')

--------------------------------------------------------------------------

  Memory set to   6.519 GiB by Python driver.

Scratch directory: /tmp/

Scratch directory: /tmp/

  //>>>>>>>>>>>>>>>>>>>>>>>>>>>>>>>>>>>//
  //              Dimer HF             //
  //<<<<<<<<<<<<<<<<<<<<<<<<<<<<<<<<<<<//


*** tstart() called on atl1-1-01-013-8-r.pace.gatech.edu
*** at Mon Nov 29 16:18:55 2021

   => Loading Basis Set <=

    Name: AUG-CC-PVDZ
    Role: ORBITAL
    Keyword: BASIS
    atoms 1-2, 11-12  entry N          line   218 file /storage/home/hhive1/csargent30/data/miniconda3/envs/psi4/share/psi4/basis/aug-cc-pvdz.gbs 
    atoms 3-6, 13-16  entry H          line    40 file /storage/home/hhive1/csargent30/data/miniconda3/envs/psi4/share/psi4/basis/aug-cc-pvdz.gbs 
    atoms 7-10, 17-20 entry C          line   182 file /storage/home/hhive1/csargent30/data/miniconda3/envs/psi4/share/psi4/basis/aug-cc-pvdz.gbs 


         ---------------------------------------------------------
                                   SCF
               by Justin Turney, Rob Parrish, Andy Simmonett
                          and Daniel G. A. Smith
                              RHF Reference
                        2 Threads,   6675 MiB Core
         ---------------------------------------------------------

  ==> Geometry <==

    Molecular point group: c1
    Full point group: C1

    Geometry (in Bohr), charge = 0, multiplicity = 1:

       Center              X                  Y                   Z               Mass       
    ------------   -----------------  -----------------  -----------------  -----------------
         N           -1.330847580000     0.980326580000     0.426270370000    14.003074004430
         N            3.953773330000     0.980326580000     0.426270370000    14.003074004430
         H            3.567136740000     4.352185690000    -0.942309730000     1.007825032230
         H           -0.944210980000     4.352185690000    -0.942309730000     1.007825032230
         H           -0.944210980000    -2.391532530000     1.794850470000     1.007825032230
         H            3.567136740000    -2.391532530000     1.794850470000     1.007825032230
         C            2.622925760000     2.940979740000    -0.426270370000    12.000000000000
         C            0.000000000000     2.940979740000    -0.426270370000    12.000000000000
         C            0.000000000000    -0.980326580000     1.278811120000    12.000000000000
         C            2.622925760000    -0.980326580000     1.278811120000    12.000000000000
         N          -36.575751600000   -10.074949200000     0.426270370000    14.003074004430
         N          -31.291130690000   -10.074949200000     0.426270370000    14.003074004430
         H          -31.677767280000    -6.703090090000    -0.942309730000     1.007825032230
         H          -36.189115000000    -6.703090090000    -0.942309730000     1.007825032230
         H          -36.189115000000   -13.446808310000     1.794850470000     1.007825032230
         H          -31.677767280000   -13.446808310000     1.794850470000     1.007825032230
         C          -32.621978260000    -8.114296040000    -0.426270370000    12.000000000000
         C          -35.244904020000    -8.114296040000    -0.426270370000    12.000000000000
         C          -35.244904020000   -12.035602360000     1.278811120000    12.000000000000
         C          -32.621978260000   -12.035602360000     1.278811120000    12.000000000000

  Running in c1 symmetry.

  Rotational constants: A =      0.10086  B =      0.00060  C =      0.00059 [cm^-1]
  Rotational constants: A =   3023.70613  B =     17.84893  C =     17.75705 [MHz]
  Nuclear repulsion =  472.985139223555677

  Charge       = 0
  Multiplicity = 1
  Electrons    = 84
  Nalpha       = 42
  Nbeta        = 42

  ==> Algorithm <==

  SCF Algorithm Type is DF.
  DIIS enabled.
  MOM disabled.
  Fractional occupation disabled.
  Guess Type is SAD.
  Energy threshold   = 1.00e-10
  Density threshold  = 1.00e-10
  Integral threshold = 1.00e-12

  ==> Primary Basis <==

  Basis Set: AUG-CC-PVDZ
    Blend: AUG-CC-PVDZ
    Number of shells: 148
    Number of basis functions: 348
    Number of Cartesian functions: 372
    Spherical Harmonics?: true
    Max angular momentum: 2

   => Loading Basis Set <=

    Name: (AUG-CC-PVDZ AUX)
    Role: JKFIT
    Keyword: DF_BASIS_SCF
    atoms 1-2, 11-12  entry N          line   212 file /storage/home/hhive1/csargent30/data/miniconda3/envs/psi4/share/psi4/basis/aug-cc-pvdz-jkfit.gbs 
    atoms 3-6, 13-16  entry H          line    70 file /storage/home/hhive1/csargent30/data/miniconda3/envs/psi4/share/psi4/basis/aug-cc-pvdz-jkfit.gbs 
    atoms 7-10, 17-20 entry C          line   154 file /storage/home/hhive1/csargent30/data/miniconda3/envs/psi4/share/psi4/basis/aug-cc-pvdz-jkfit.gbs 

  ==> Integral Setup <==

  ==> DiskDFJK: Density-Fitted J/K Matrices <==

    J tasked:                  Yes
    K tasked:                  Yes
    wK tasked:                  No
    OpenMP threads:              2
    Integrals threads:           2
    Memory [MiB]:             5006
    Algorithm:                Core
    Integral Cache:           SAVE
    Schwarz Cutoff:          1E-12
    Fitting Condition:       1E-10

   => Auxiliary Basis Set <=

  Basis Set: (AUG-CC-PVDZ AUX)
    Blend: AUG-CC-PVDZ-JKFIT
    Number of shells: 432
    Number of basis functions: 1288
    Number of Cartesian functions: 1492
    Spherical Harmonics?: true
    Max angular momentum: 3

  Minimum eigenvalue in the overlap matrix is 9.4892680323E-06.
  Reciprocal condition number of the overlap matrix is 7.4013179440E-07.
    Using symmetric orthogonalization.

  ==> Pre-Iterations <==

  SCF Guess: Superposition of Atomic Densities via on-the-fly atomic UHF (no occupation information).

   -------------------------
    Irrep   Nso     Nmo    
   -------------------------
     A        348     348 
   -------------------------
    Total     348     348
   -------------------------

  ==> Iterations <==

                           Total Energy        Delta E     RMS |[F,P]|

   @DF-RHF iter SAD:  -524.65046251588876   -5.24650e+02   0.00000e+00 
   @DF-RHF iter   1:  -525.07881359987368   -4.28351e-01   1.58371e-03 DIIS
   @DF-RHF iter   2:  -525.25757443130499   -1.78761e-01   5.80771e-04 DIIS
   @DF-RHF iter   3:  -525.27724367924259   -1.96692e-02   1.81372e-04 DIIS
   @DF-RHF iter   4:  -525.27969322768217   -2.44955e-03   5.34015e-05 DIIS
   @DF-RHF iter   5:  -525.27987243511689   -1.79207e-04   1.06855e-05 DIIS
   @DF-RHF iter   6:  -525.27988553622799   -1.31011e-05   3.46868e-06 DIIS
   @DF-RHF iter   7:  -525.27988744110917   -1.90488e-06   9.05377e-07 DIIS
   @DF-RHF iter   8:  -525.27988758888409   -1.47775e-07   1.41263e-07 DIIS
   @DF-RHF iter   9:  -525.27988759284517   -3.96108e-09   3.40582e-08 DIIS
   @DF-RHF iter  10:  -525.27988759299012   -1.44951e-10   1.91731e-08 DIIS
   @DF-RHF iter  11:  -525.27988759302093   -3.08091e-11   2.82472e-09 DIIS
   @DF-RHF iter  12:  -525.27988759302275   -1.81899e-12   6.50883e-10 DIIS
   @DF-RHF iter  13:  -525.27988759302150    1.25056e-12   3.43674e-10 DIIS
   @DF-RHF iter  14:  -525.27988759302150    0.00000e+00   6.10400e-11 DIIS
  Energy and wave function converged.


  ==> Post-Iterations <==

    Orbital Energies [Eh]
    ---------------------

    Doubly Occupied:                                                      

       1A    -15.597949     2A    -15.597949     3A    -15.597926  
       4A    -15.597926     5A    -11.274115     6A    -11.274115  
       7A    -11.274069     8A    -11.274069     9A    -11.272852  
      10A    -11.272852    11A    -11.272843    12A    -11.272843  
      13A     -1.313222    14A     -1.313222    15A     -1.224051  
      16A     -1.224051    17A     -1.076679    18A     -1.076679  
      19A     -0.922538    20A     -0.922538    21A     -0.919158  
      22A     -0.919158    23A     -0.760512    24A     -0.760512  
      25A     -0.738278    26A     -0.738278    27A     -0.706089  
      28A     -0.706089    29A     -0.647563    30A     -0.647563  
      31A     -0.580586    32A     -0.580586    33A     -0.574245  
      34A     -0.574245    35A     -0.496987    36A     -0.496987  
      37A     -0.434163    38A     -0.434163    39A     -0.415730  
      40A     -0.415730    41A     -0.359800    42A     -0.359800  

    Virtual:                                                              

      43A      0.034617    44A      0.034619    45A      0.040858  
      46A      0.040859    47A      0.048509    48A      0.048522  
      49A      0.058719    50A      0.058726    51A      0.067235  
      52A      0.067235    53A      0.099543    54A      0.099543  
      55A      0.101071    56A      0.101071    57A      0.114322  
      58A      0.114322    59A      0.115074    60A      0.115074  
      61A      0.123898    62A      0.123912    63A      0.125447  
      64A      0.125448    65A      0.128788    66A      0.128789  
      67A      0.133008    68A      0.133008    69A      0.158318  
      70A      0.158321    71A      0.161203    72A      0.161206  
      73A      0.161453    74A      0.161460    75A      0.164027  
      76A      0.164059    77A      0.175303    78A      0.175312  
      79A      0.187042    80A      0.187042    81A      0.204028  
      82A      0.204028    83A      0.212663    84A      0.212666  
      85A      0.250641    86A      0.250641    87A      0.267885  
      88A      0.267885    89A      0.278179    90A      0.278183  
      91A      0.287938    92A      0.287938    93A      0.293331  
      94A      0.293331    95A      0.295869    96A      0.295896  
      97A      0.314959    98A      0.314960    99A      0.320581  
     100A      0.320581   101A      0.355554   102A      0.355558  
     103A      0.358031   104A      0.358031   105A      0.364786  
     106A      0.364786   107A      0.382700   108A      0.382716  
     109A      0.399012   110A      0.399014   111A      0.410021  
     112A      0.410022   113A      0.425575   114A      0.425582  
     115A      0.434047   116A      0.434047   117A      0.437333  
     118A      0.437335   119A      0.452217   120A      0.452221  
     121A      0.471607   122A      0.471609   123A      0.492263  
     124A      0.492263   125A      0.504985   126A      0.504985  
     127A      0.515036   128A      0.515036   129A      0.524672  
     130A      0.524672   131A      0.528791   132A      0.528792  
     133A      0.554701   134A      0.554701   135A      0.570659  
     136A      0.570660   137A      0.587660   138A      0.587660  
     139A      0.591630   140A      0.591631   141A      0.593924  
     142A      0.593924   143A      0.609055   144A      0.609055  
     145A      0.643644   146A      0.643644   147A      0.644443  
     148A      0.644447   149A      0.685260   150A      0.685261  
     151A      0.687882   152A      0.687882   153A      0.690055  
     154A      0.690055   155A      0.690465   156A      0.690469  
     157A      0.694952   158A      0.694952   159A      0.703950  
     160A      0.703962   161A      0.746681   162A      0.746682  
     163A      0.754940   164A      0.754940   165A      0.767091  
     166A      0.767091   167A      0.781530   168A      0.781530  
     169A      0.799938   170A      0.799939   171A      0.802833  
     172A      0.802834   173A      0.819140   174A      0.819140  
     175A      0.831195   176A      0.831195   177A      0.847637  
     178A      0.847640   179A      0.880669   180A      0.880669  
     181A      0.886534   182A      0.886534   183A      0.894806  
     184A      0.894806   185A      0.929395   186A      0.929396  
     187A      0.939588   188A      0.939593   189A      0.949431  
     190A      0.949431   191A      0.996777   192A      0.996777  
     193A      0.999035   194A      0.999035   195A      1.013141  
     196A      1.013141   197A      1.033494   198A      1.033496  
     199A      1.051318   200A      1.051318   201A      1.089507  
     202A      1.089507   203A      1.100570   204A      1.100570  
     205A      1.122322   206A      1.122323   207A      1.124168  
     208A      1.124169   209A      1.134486   210A      1.134487  
     211A      1.158863   212A      1.158868   213A      1.173689  
     214A      1.173689   215A      1.235541   216A      1.235541  
     217A      1.238929   218A      1.238929   219A      1.309797  
     220A      1.309799   221A      1.331272   222A      1.331273  
     223A      1.414406   224A      1.414406   225A      1.451652  
     226A      1.451652   227A      1.486263   228A      1.486263  
     229A      1.488200   230A      1.488200   231A      1.499334  
     232A      1.499335   233A      1.502969   234A      1.502970  
     235A      1.518375   236A      1.518376   237A      1.572810  
     238A      1.572810   239A      1.574316   240A      1.574317  
     241A      1.587959   242A      1.587960   243A      1.636106  
     244A      1.636106   245A      1.640628   246A      1.640628  
     247A      1.648341   248A      1.648347   249A      1.676676  
     250A      1.676676   251A      1.717115   252A      1.717115  
     253A      1.746721   254A      1.746721   255A      1.755228  
     256A      1.755228   257A      1.783886   258A      1.783887  
     259A      1.815851   260A      1.815851   261A      1.893447  
     262A      1.893447   263A      1.916261   264A      1.916261  
     265A      1.964953   266A      1.964953   267A      1.987799  
     268A      1.987799   269A      2.031326   270A      2.031326  
     271A      2.091672   272A      2.091672   273A      2.101151  
     274A      2.101153   275A      2.143078   276A      2.143078  
     277A      2.163480   278A      2.163480   279A      2.190612  
     280A      2.190612   281A      2.193425   282A      2.193428  
     283A      2.200504   284A      2.200504   285A      2.202534  
     286A      2.202534   287A      2.227750   288A      2.227750  
     289A      2.312885   290A      2.312885   291A      2.355353  
     292A      2.355353   293A      2.431082   294A      2.431082  
     295A      2.439101   296A      2.439101   297A      2.519503  
     298A      2.519503   299A      2.522519   300A      2.522519  
     301A      2.584892   302A      2.584892   303A      2.606391  
     304A      2.606391   305A      2.665349   306A      2.665349  
     307A      2.675534   308A      2.675534   309A      2.686519  
     310A      2.686520   311A      2.714107   312A      2.714112  
     313A      2.718715   314A      2.718716   315A      2.844139  
     316A      2.844139   317A      2.865885   318A      2.865885  
     319A      2.939321   320A      2.939321   321A      3.001980  
     322A      3.001980   323A      3.017996   324A      3.017997  
     325A      3.032311   326A      3.032312   327A      3.094260  
     328A      3.094261   329A      3.220437   330A      3.220444  
     331A      3.256104   332A      3.256104   333A      3.285005  
     334A      3.285005   335A      3.366264   336A      3.366264  
     337A      3.413491   338A      3.413491   339A      3.515044  
     340A      3.515045   341A      3.590779   342A      3.590779  
     343A      3.627893   344A      3.627894   345A      3.977360  
     346A      3.977361   347A      4.253609   348A      4.253610  

    Final Occupation by Irrep:
              A 
    DOCC [    42 ]

  @DF-RHF Final Energy:  -525.27988759302150

   => Energetics <=

    Nuclear Repulsion Energy =            472.9851392235556773
    One-Electron Energy =               -1646.6926275076411912
    Two-Electron Energy =                 648.4276006910639580
    Total Energy =                       -525.2798875930214990

Computation Completed


Properties will be evaluated at   0.000000,   0.000000,   0.000000 [a0]

Properties computed using the SCF density matrix

  Nuclear Dipole Moment: [e a0]
     X: -1370.1231      Y:  -381.9742      Z:    35.8067

  Electronic Dipole Moment: [e a0]
     X:  1370.1231      Y:   381.9742      Z:   -35.8067

  Dipole Moment: [e a0]
     X:     0.0000      Y:     0.0000      Z:     0.0000     Total:     0.0000

  Dipole Moment: [D]
     X:     0.0000      Y:     0.0000      Z:     0.0000     Total:     0.0000


*** tstop() called on atl1-1-01-013-8-r.pace.gatech.edu at Mon Nov 29 16:19:08 2021
Module time:
	user time   =      22.85 seconds =       0.38 minutes
	system time =       0.97 seconds =       0.02 minutes
	total time  =         13 seconds =       0.22 minutes
Total time:
	user time   =      22.85 seconds =       0.38 minutes
	system time =       0.97 seconds =       0.02 minutes
	total time  =         13 seconds =       0.22 minutes

  //>>>>>>>>>>>>>>>>>>>>>>>>>>>>>>>>>>>//
  //            Monomer A HF           //
  //<<<<<<<<<<<<<<<<<<<<<<<<<<<<<<<<<<<//


*** tstart() called on atl1-1-01-013-8-r.pace.gatech.edu
*** at Mon Nov 29 16:19:08 2021

   => Loading Basis Set <=

    Name: AUG-CC-PVDZ
    Role: ORBITAL
    Keyword: BASIS
    atoms 1-2, 11-12  entry N          line   218 file /storage/home/hhive1/csargent30/data/miniconda3/envs/psi4/share/psi4/basis/aug-cc-pvdz.gbs 
    atoms 3-6, 13-16  entry H          line    40 file /storage/home/hhive1/csargent30/data/miniconda3/envs/psi4/share/psi4/basis/aug-cc-pvdz.gbs 
    atoms 7-10, 17-20 entry C          line   182 file /storage/home/hhive1/csargent30/data/miniconda3/envs/psi4/share/psi4/basis/aug-cc-pvdz.gbs 


         ---------------------------------------------------------
                                   SCF
               by Justin Turney, Rob Parrish, Andy Simmonett
                          and Daniel G. A. Smith
                              RHF Reference
                        2 Threads,   6675 MiB Core
         ---------------------------------------------------------

  ==> Geometry <==

    Molecular point group: c1
    Full point group: C1

    Geometry (in Bohr), charge = 0, multiplicity = 1:

       Center              X                  Y                   Z               Mass       
    ------------   -----------------  -----------------  -----------------  -----------------
         N           -1.330847580000     0.980326580000     0.426270370000    14.003074004430
         N            3.953773330000     0.980326580000     0.426270370000    14.003074004430
         H            3.567136740000     4.352185690000    -0.942309730000     1.007825032230
         H           -0.944210980000     4.352185690000    -0.942309730000     1.007825032230
         H           -0.944210980000    -2.391532530000     1.794850470000     1.007825032230
         H            3.567136740000    -2.391532530000     1.794850470000     1.007825032230
         C            2.622925760000     2.940979740000    -0.426270370000    12.000000000000
         C            0.000000000000     2.940979740000    -0.426270370000    12.000000000000
         C            0.000000000000    -0.980326580000     1.278811120000    12.000000000000
         C            2.622925760000    -0.980326580000     1.278811120000    12.000000000000
      Gh(N)         -36.575751600000   -10.074949200000     0.426270370000    14.003074004430
      Gh(N)         -31.291130690000   -10.074949200000     0.426270370000    14.003074004430
      Gh(H)         -31.677767280000    -6.703090090000    -0.942309730000     1.007825032230
      Gh(H)         -36.189115000000    -6.703090090000    -0.942309730000     1.007825032230
      Gh(H)         -36.189115000000   -13.446808310000     1.794850470000     1.007825032230
      Gh(H)         -31.677767280000   -13.446808310000     1.794850470000     1.007825032230
      Gh(C)         -32.621978260000    -8.114296040000    -0.426270370000    12.000000000000
      Gh(C)         -35.244904020000    -8.114296040000    -0.426270370000    12.000000000000
      Gh(C)         -35.244904020000   -12.035602360000     1.278811120000    12.000000000000
      Gh(C)         -32.621978260000   -12.035602360000     1.278811120000    12.000000000000

  Running in c1 symmetry.

  Rotational constants: A =      0.10086  B =      0.00060  C =      0.00059 [cm^-1]
  Rotational constants: A =   3023.70613  B =     17.84893  C =     17.75705 [MHz]
  Nuclear repulsion =  212.551731110485349

  Charge       = 0
  Multiplicity = 1
  Electrons    = 42
  Nalpha       = 21
  Nbeta        = 21

  ==> Algorithm <==

  SCF Algorithm Type is DF.
  DIIS enabled.
  MOM disabled.
  Fractional occupation disabled.
  Guess Type is SAD.
  Energy threshold   = 1.00e-10
  Density threshold  = 1.00e-10
  Integral threshold = 1.00e-12

  ==> Primary Basis <==

  Basis Set: AUG-CC-PVDZ
    Blend: AUG-CC-PVDZ
    Number of shells: 148
    Number of basis functions: 348
    Number of Cartesian functions: 372
    Spherical Harmonics?: true
    Max angular momentum: 2

   => Loading Basis Set <=

    Name: (AUG-CC-PVDZ AUX)
    Role: JKFIT
    Keyword: DF_BASIS_SCF
    atoms 1-2, 11-12  entry N          line   212 file /storage/home/hhive1/csargent30/data/miniconda3/envs/psi4/share/psi4/basis/aug-cc-pvdz-jkfit.gbs 
    atoms 3-6, 13-16  entry H          line    70 file /storage/home/hhive1/csargent30/data/miniconda3/envs/psi4/share/psi4/basis/aug-cc-pvdz-jkfit.gbs 
    atoms 7-10, 17-20 entry C          line   154 file /storage/home/hhive1/csargent30/data/miniconda3/envs/psi4/share/psi4/basis/aug-cc-pvdz-jkfit.gbs 

  ==> Integral Setup <==

  ==> DiskDFJK: Density-Fitted J/K Matrices <==

    J tasked:                  Yes
    K tasked:                  Yes
    wK tasked:                  No
    OpenMP threads:              2
    Integrals threads:           2
    Memory [MiB]:             5006
    Algorithm:                Core
    Integral Cache:           LOAD
    Schwarz Cutoff:          1E-12
    Fitting Condition:       1E-10

   => Auxiliary Basis Set <=

  Basis Set: (AUG-CC-PVDZ AUX)
    Blend: AUG-CC-PVDZ-JKFIT
    Number of shells: 432
    Number of basis functions: 1288
    Number of Cartesian functions: 1492
    Spherical Harmonics?: true
    Max angular momentum: 3

  Minimum eigenvalue in the overlap matrix is 9.4892680323E-06.
  Reciprocal condition number of the overlap matrix is 7.4013179440E-07.
    Using symmetric orthogonalization.

  ==> Pre-Iterations <==

  SCF Guess: Superposition of Atomic Densities via on-the-fly atomic UHF (no occupation information).

   -------------------------
    Irrep   Nso     Nmo    
   -------------------------
     A        348     348 
   -------------------------
    Total     348     348
   -------------------------

  ==> Iterations <==

                           Total Energy        Delta E     RMS |[F,P]|

   @DF-RHF iter SAD:  -262.32523125832711   -2.62325e+02   0.00000e+00 
   @DF-RHF iter   1:  -262.53940798124705   -2.14177e-01   1.11985e-03 DIIS
   @DF-RHF iter   2:  -262.62878837369328   -8.93804e-02   4.10664e-04 DIIS
   @DF-RHF iter   3:  -262.63862291827121   -9.83454e-03   1.28248e-04 DIIS
   @DF-RHF iter   4:  -262.63984767154426   -1.22475e-03   3.77599e-05 DIIS
   @DF-RHF iter   5:  -262.63993727200432   -8.96005e-05   7.55558e-06 DIIS
   @DF-RHF iter   6:  -262.63994382226389   -6.55026e-06   2.45264e-06 DIIS
   @DF-RHF iter   7:  -262.63994477463751   -9.52374e-07   6.40130e-07 DIIS
   @DF-RHF iter   8:  -262.63994484852537   -7.38879e-08   9.91693e-08 DIIS
   @DF-RHF iter   9:  -262.63994485051177   -1.98639e-09   1.88228e-08 DIIS
   @DF-RHF iter  10:  -262.63994485058220   -7.04290e-11   3.19151e-09 DIIS
   @DF-RHF iter  11:  -262.63994485058436   -2.16005e-12   5.22317e-10 DIIS
   @DF-RHF iter  12:  -262.63994485058470   -3.41061e-13   9.54296e-11 DIIS
  Energy and wave function converged.


  ==> Post-Iterations <==

    Orbital Energies [Eh]
    ---------------------

    Doubly Occupied:                                                      

       1A    -15.598072     2A    -15.598053     3A    -11.274239  
       4A    -11.274194     5A    -11.272975     6A    -11.272969  
       7A     -1.313347     8A     -1.224176     9A     -1.076803  
      10A     -0.922662    11A     -0.919282    12A     -0.760637  
      13A     -0.738402    14A     -0.706214    15A     -0.647687  
      16A     -0.580711    17A     -0.574369    18A     -0.497113  
      19A     -0.434288    20A     -0.415855    21A     -0.359924  

    Virtual:                                                              

      22A      0.022483    23A      0.034497    24A      0.039554  
      25A      0.040738    26A      0.041238    27A      0.048383  
      28A      0.058591    29A      0.058907    30A      0.067113  
      31A      0.079726    32A      0.085094    33A      0.099419  
      34A      0.100948    35A      0.104048    36A      0.108561  
      37A      0.108908    38A      0.114201    39A      0.114951  
      40A      0.122542    41A      0.123776    42A      0.125322  
      43A      0.125634    44A      0.128661    45A      0.130990  
      46A      0.132889    47A      0.134201    48A      0.152158  
      49A      0.153082    50A      0.158199    51A      0.159393  
      52A      0.161084    53A      0.161326    54A      0.163914  
      55A      0.175179    56A      0.176798    57A      0.186918  
      58A      0.197854    59A      0.203908    60A      0.203950  
      61A      0.206709    62A      0.212538    63A      0.222429  
      64A      0.233665    65A      0.239493    66A      0.250517  
      67A      0.255270    68A      0.267756    69A      0.270828  
      70A      0.278056    71A      0.287812    72A      0.293207  
      73A      0.295749    74A      0.302368    75A      0.314832  
      76A      0.320457    77A      0.320691    78A      0.328208  
      79A      0.331349    80A      0.344173    81A      0.355428  
      82A      0.357908    83A      0.364661    84A      0.380549  
      85A      0.382583    86A      0.385682    87A      0.398891  
      88A      0.401323    89A      0.409895    90A      0.419322  
      91A      0.424995    92A      0.425453    93A      0.433925  
      94A      0.437212    95A      0.441981    96A      0.452092  
      97A      0.460704    98A      0.461151    99A      0.471483  
     100A      0.476133   101A      0.478869   102A      0.492140  
     103A      0.504862   104A      0.507869   105A      0.514914  
     106A      0.523817   107A      0.524547   108A      0.528668  
     109A      0.535778   110A      0.554577   111A      0.557894  
     112A      0.561560   113A      0.564543   114A      0.570535  
     115A      0.581954   116A      0.587535   117A      0.591506  
     118A      0.593799   119A      0.596060   120A      0.608929  
     121A      0.615189   122A      0.620208   123A      0.636412  
     124A      0.643517   125A      0.644321   126A      0.649402  
     127A      0.651537   128A      0.679462   129A      0.685136  
     130A      0.685365   131A      0.687758   132A      0.689932  
     133A      0.690342   134A      0.694828   135A      0.703829  
     136A      0.719936   137A      0.728438   138A      0.746558  
     139A      0.746834   140A      0.754817   141A      0.766965  
     142A      0.775728   143A      0.781406   144A      0.793680  
     145A      0.799815   146A      0.802710   147A      0.811142  
     148A      0.812026   149A      0.819016   150A      0.824801  
     151A      0.831071   152A      0.847513   153A      0.848110  
     154A      0.849233   155A      0.868653   156A      0.880544  
     157A      0.886410   158A      0.888196   159A      0.894682  
     160A      0.906151   161A      0.929161   162A      0.929272  
     163A      0.939466   164A      0.947739   165A      0.949307  
     166A      0.970826   167A      0.976983   168A      0.986686  
     169A      0.996652   170A      0.998908   171A      1.013015  
     172A      1.032467   173A      1.033370   174A      1.046977  
     175A      1.051194   176A      1.076312   177A      1.089381  
     178A      1.090326   179A      1.100445   180A      1.122199  
     181A      1.124044   182A      1.130711   183A      1.134362  
     184A      1.140313   185A      1.158740   186A      1.168636  
     187A      1.170724   188A      1.173565   189A      1.192256  
     190A      1.193289   191A      1.200521   192A      1.222364  
     193A      1.235416   194A      1.238804   195A      1.251076  
     196A      1.307605   197A      1.309674   198A      1.318309  
     199A      1.326462   200A      1.329659   201A      1.331148  
     202A      1.346856   203A      1.389262   204A      1.414282  
     205A      1.448439   206A      1.451526   207A      1.455508  
     208A      1.479182   209A      1.486137   210A      1.487254  
     211A      1.488075   212A      1.499211   213A      1.502846  
     214A      1.518252   215A      1.572686   216A      1.574192  
     217A      1.587836   218A      1.635982   219A      1.640505  
     220A      1.648219   221A      1.659290   222A      1.676552  
     223A      1.698115   224A      1.716991   225A      1.746597  
     226A      1.755104   227A      1.783762   228A      1.815727  
     229A      1.893323   230A      1.916137   231A      1.964829  
     232A      1.987674   233A      2.031202   234A      2.070276  
     235A      2.091548   236A      2.101028   237A      2.102813  
     238A      2.119492   239A      2.142953   240A      2.156725  
     241A      2.159239   242A      2.163355   243A      2.190488  
     244A      2.193301   245A      2.194909   246A      2.200380  
     247A      2.202410   248A      2.227626   249A      2.234824  
     250A      2.241252   251A      2.249709   252A      2.310064  
     253A      2.312761   254A      2.319596   255A      2.355229  
     256A      2.384855   257A      2.419259   258A      2.430957  
     259A      2.435463   260A      2.438215   261A      2.438977  
     262A      2.472726   263A      2.486774   264A      2.498371  
     265A      2.519379   266A      2.522395   267A      2.525117  
     268A      2.546045   269A      2.568377   270A      2.584766  
     271A      2.592422   272A      2.606266   273A      2.626023  
     274A      2.665224   275A      2.675409   276A      2.686395  
     277A      2.713985   278A      2.716947   279A      2.718591  
     280A      2.726701   281A      2.767984   282A      2.844014  
     283A      2.865761   284A      2.904087   285A      2.939196  
     286A      2.947278   287A      2.955801   288A      2.973392  
     289A      3.001855   290A      3.017872   291A      3.032186  
     292A      3.058381   293A      3.065279   294A      3.094137  
     295A      3.113919   296A      3.220316   297A      3.245779  
     298A      3.255980   299A      3.284880   300A      3.289733  
     301A      3.322012   302A      3.337793   303A      3.340538  
     304A      3.348710   305A      3.351434   306A      3.366140  
     307A      3.412681   308A      3.413367   309A      3.470837  
     310A      3.502036   311A      3.514920   312A      3.521447  
     313A      3.590655   314A      3.604520   315A      3.605728  
     316A      3.627769   317A      3.700568   318A      3.819006  
     319A      3.830771   320A      3.941052   321A      3.969179  
     322A      3.977236   323A      4.011485   324A      4.194841  
     325A      4.242333   326A      4.253485   327A      4.442071  
     328A      4.546912   329A      4.579360   330A      4.867723  
     331A      4.976226   332A      5.057935   333A      5.261794  
     334A      5.316622   335A      5.630281   336A      5.691407  
     337A      5.827231   338A      5.952715   339A      6.283911  
     340A      6.306972   341A      6.453849   342A      6.631283  
     343A     18.125799   344A     18.208061   345A     19.017657  
     346A     19.343082   347A     25.287145   348A     25.374865  

    Final Occupation by Irrep:
              A 
    DOCC [    21 ]

  @DF-RHF Final Energy:  -262.63994485058470

   => Energetics <=

    Nuclear Repulsion Energy =            212.5517311104853491
    One-Electron Energy =                -775.4594096270838008
    Two-Electron Energy =                 300.2677336660137826
    Total Energy =                       -262.6399448505846976

Computation Completed


Properties will be evaluated at   0.000000,   0.000000,   0.000000 [a0]

Properties computed using the SCF density matrix

  Nuclear Dipole Moment: [e a0]
     X:    55.0814      Y:    41.1737      Z:    17.9034

  Electronic Dipole Moment: [e a0]
     X:   -55.0814      Y:   -41.1737      Z:   -17.9034

  Dipole Moment: [e a0]
     X:    -0.0000      Y:     0.0000      Z:    -0.0000     Total:     0.0000

  Dipole Moment: [D]
     X:    -0.0000      Y:     0.0000      Z:    -0.0000     Total:     0.0000


*** tstop() called on atl1-1-01-013-8-r.pace.gatech.edu at Mon Nov 29 16:19:15 2021
Module time:
	user time   =      13.75 seconds =       0.23 minutes
	system time =       0.48 seconds =       0.01 minutes
	total time  =          7 seconds =       0.12 minutes
Total time:
	user time   =      36.61 seconds =       0.61 minutes
	system time =       1.45 seconds =       0.02 minutes
	total time  =         20 seconds =       0.33 minutes

  //>>>>>>>>>>>>>>>>>>>>>>>>>>>>>>>>>>>//
  //            Monomer B HF           //
  //<<<<<<<<<<<<<<<<<<<<<<<<<<<<<<<<<<<//


*** tstart() called on atl1-1-01-013-8-r.pace.gatech.edu
*** at Mon Nov 29 16:19:15 2021

   => Loading Basis Set <=

    Name: AUG-CC-PVDZ
    Role: ORBITAL
    Keyword: BASIS
    atoms 1-2, 11-12  entry N          line   218 file /storage/home/hhive1/csargent30/data/miniconda3/envs/psi4/share/psi4/basis/aug-cc-pvdz.gbs 
    atoms 3-6, 13-16  entry H          line    40 file /storage/home/hhive1/csargent30/data/miniconda3/envs/psi4/share/psi4/basis/aug-cc-pvdz.gbs 
    atoms 7-10, 17-20 entry C          line   182 file /storage/home/hhive1/csargent30/data/miniconda3/envs/psi4/share/psi4/basis/aug-cc-pvdz.gbs 


         ---------------------------------------------------------
                                   SCF
               by Justin Turney, Rob Parrish, Andy Simmonett
                          and Daniel G. A. Smith
                              RHF Reference
                        2 Threads,   6675 MiB Core
         ---------------------------------------------------------

  ==> Geometry <==

    Molecular point group: c1
    Full point group: C1

    Geometry (in Bohr), charge = 0, multiplicity = 1:

       Center              X                  Y                   Z               Mass       
    ------------   -----------------  -----------------  -----------------  -----------------
      Gh(N)          -1.330847580000     0.980326580000     0.426270370000    14.003074004430
      Gh(N)           3.953773330000     0.980326580000     0.426270370000    14.003074004430
      Gh(H)           3.567136740000     4.352185690000    -0.942309730000     1.007825032230
      Gh(H)          -0.944210980000     4.352185690000    -0.942309730000     1.007825032230
      Gh(H)          -0.944210980000    -2.391532530000     1.794850470000     1.007825032230
      Gh(H)           3.567136740000    -2.391532530000     1.794850470000     1.007825032230
      Gh(C)           2.622925760000     2.940979740000    -0.426270370000    12.000000000000
      Gh(C)           0.000000000000     2.940979740000    -0.426270370000    12.000000000000
      Gh(C)           0.000000000000    -0.980326580000     1.278811120000    12.000000000000
      Gh(C)           2.622925760000    -0.980326580000     1.278811120000    12.000000000000
         N          -36.575751600000   -10.074949200000     0.426270370000    14.003074004430
         N          -31.291130690000   -10.074949200000     0.426270370000    14.003074004430
         H          -31.677767280000    -6.703090090000    -0.942309730000     1.007825032230
         H          -36.189115000000    -6.703090090000    -0.942309730000     1.007825032230
         H          -36.189115000000   -13.446808310000     1.794850470000     1.007825032230
         H          -31.677767280000   -13.446808310000     1.794850470000     1.007825032230
         C          -32.621978260000    -8.114296040000    -0.426270370000    12.000000000000
         C          -35.244904020000    -8.114296040000    -0.426270370000    12.000000000000
         C          -35.244904020000   -12.035602360000     1.278811120000    12.000000000000
         C          -32.621978260000   -12.035602360000     1.278811120000    12.000000000000

  Running in c1 symmetry.

  Rotational constants: A =      0.10086  B =      0.00060  C =      0.00059 [cm^-1]
  Rotational constants: A =   3023.70613  B =     17.84893  C =     17.75705 [MHz]
  Nuclear repulsion =  212.551731110485292

  Charge       = 0
  Multiplicity = 1
  Electrons    = 42
  Nalpha       = 21
  Nbeta        = 21

  ==> Algorithm <==

  SCF Algorithm Type is DF.
  DIIS enabled.
  MOM disabled.
  Fractional occupation disabled.
  Guess Type is SAD.
  Energy threshold   = 1.00e-10
  Density threshold  = 1.00e-10
  Integral threshold = 1.00e-12

  ==> Primary Basis <==

  Basis Set: AUG-CC-PVDZ
    Blend: AUG-CC-PVDZ
    Number of shells: 148
    Number of basis functions: 348
    Number of Cartesian functions: 372
    Spherical Harmonics?: true
    Max angular momentum: 2

   => Loading Basis Set <=

    Name: (AUG-CC-PVDZ AUX)
    Role: JKFIT
    Keyword: DF_BASIS_SCF
    atoms 1-2, 11-12  entry N          line   212 file /storage/home/hhive1/csargent30/data/miniconda3/envs/psi4/share/psi4/basis/aug-cc-pvdz-jkfit.gbs 
    atoms 3-6, 13-16  entry H          line    70 file /storage/home/hhive1/csargent30/data/miniconda3/envs/psi4/share/psi4/basis/aug-cc-pvdz-jkfit.gbs 
    atoms 7-10, 17-20 entry C          line   154 file /storage/home/hhive1/csargent30/data/miniconda3/envs/psi4/share/psi4/basis/aug-cc-pvdz-jkfit.gbs 

  ==> Integral Setup <==

  ==> DiskDFJK: Density-Fitted J/K Matrices <==

    J tasked:                  Yes
    K tasked:                  Yes
    wK tasked:                  No
    OpenMP threads:              2
    Integrals threads:           2
    Memory [MiB]:             5006
    Algorithm:                Core
    Integral Cache:           LOAD
    Schwarz Cutoff:          1E-12
    Fitting Condition:       1E-10

   => Auxiliary Basis Set <=

  Basis Set: (AUG-CC-PVDZ AUX)
    Blend: AUG-CC-PVDZ-JKFIT
    Number of shells: 432
    Number of basis functions: 1288
    Number of Cartesian functions: 1492
    Spherical Harmonics?: true
    Max angular momentum: 3

  Minimum eigenvalue in the overlap matrix is 9.4892680323E-06.
  Reciprocal condition number of the overlap matrix is 7.4013179440E-07.
    Using symmetric orthogonalization.

  ==> Pre-Iterations <==

  SCF Guess: Superposition of Atomic Densities via on-the-fly atomic UHF (no occupation information).

   -------------------------
    Irrep   Nso     Nmo    
   -------------------------
     A        348     348 
   -------------------------
    Total     348     348
   -------------------------

  ==> Iterations <==

                           Total Energy        Delta E     RMS |[F,P]|

   @DF-RHF iter SAD:  -262.32523125708019   -2.62325e+02   0.00000e+00 
   @DF-RHF iter   1:  -262.53940797993039   -2.14177e-01   1.11985e-03 DIIS
   @DF-RHF iter   2:  -262.62878837237537   -8.93804e-02   4.10664e-04 DIIS
   @DF-RHF iter   3:  -262.63862291695335   -9.83454e-03   1.28248e-04 DIIS
   @DF-RHF iter   4:  -262.63984767022617   -1.22475e-03   3.77599e-05 DIIS
   @DF-RHF iter   5:  -262.63993727068754   -8.96005e-05   7.55558e-06 DIIS
   @DF-RHF iter   6:  -262.63994382094694   -6.55026e-06   2.45264e-06 DIIS
   @DF-RHF iter   7:  -262.63994477332051   -9.52374e-07   6.40130e-07 DIIS
   @DF-RHF iter   8:  -262.63994484720814   -7.38876e-08   9.91693e-08 DIIS
   @DF-RHF iter   9:  -262.63994484919391   -1.98577e-09   1.88228e-08 DIIS
   @DF-RHF iter  10:  -262.63994484926519   -7.12816e-11   3.19151e-09 DIIS
   @DF-RHF iter  11:  -262.63994484926684   -1.64846e-12   5.22319e-10 DIIS
   @DF-RHF iter  12:  -262.63994484926724   -3.97904e-13   9.54502e-11 DIIS
  Energy and wave function converged.


  ==> Post-Iterations <==

    Orbital Energies [Eh]
    ---------------------

    Doubly Occupied:                                                      

       1A    -15.598072     2A    -15.598053     3A    -11.274239  
       4A    -11.274194     5A    -11.272975     6A    -11.272969  
       7A     -1.313347     8A     -1.224176     9A     -1.076803  
      10A     -0.922662    11A     -0.919282    12A     -0.760637  
      13A     -0.738402    14A     -0.706214    15A     -0.647687  
      16A     -0.580711    17A     -0.574369    18A     -0.497113  
      19A     -0.434288    20A     -0.415855    21A     -0.359924  

    Virtual:                                                              

      22A      0.022483    23A      0.034497    24A      0.039554  
      25A      0.040738    26A      0.041238    27A      0.048383  
      28A      0.058591    29A      0.058907    30A      0.067113  
      31A      0.079726    32A      0.085094    33A      0.099419  
      34A      0.100948    35A      0.104048    36A      0.108561  
      37A      0.108908    38A      0.114201    39A      0.114951  
      40A      0.122542    41A      0.123776    42A      0.125322  
      43A      0.125634    44A      0.128661    45A      0.130990  
      46A      0.132889    47A      0.134201    48A      0.152158  
      49A      0.153082    50A      0.158199    51A      0.159393  
      52A      0.161084    53A      0.161326    54A      0.163914  
      55A      0.175179    56A      0.176798    57A      0.186918  
      58A      0.197854    59A      0.203908    60A      0.203950  
      61A      0.206709    62A      0.212538    63A      0.222429  
      64A      0.233665    65A      0.239493    66A      0.250517  
      67A      0.255270    68A      0.267756    69A      0.270829  
      70A      0.278056    71A      0.287812    72A      0.293207  
      73A      0.295749    74A      0.302368    75A      0.314832  
      76A      0.320457    77A      0.320691    78A      0.328208  
      79A      0.331349    80A      0.344173    81A      0.355428  
      82A      0.357908    83A      0.364661    84A      0.380549  
      85A      0.382583    86A      0.385682    87A      0.398891  
      88A      0.401323    89A      0.409895    90A      0.419322  
      91A      0.424995    92A      0.425453    93A      0.433925  
      94A      0.437212    95A      0.441981    96A      0.452092  
      97A      0.460704    98A      0.461151    99A      0.471483  
     100A      0.476133   101A      0.478869   102A      0.492140  
     103A      0.504862   104A      0.507869   105A      0.514914  
     106A      0.523817   107A      0.524547   108A      0.528668  
     109A      0.535778   110A      0.554577   111A      0.557894  
     112A      0.561560   113A      0.564543   114A      0.570535  
     115A      0.581954   116A      0.587535   117A      0.591506  
     118A      0.593799   119A      0.596060   120A      0.608929  
     121A      0.615189   122A      0.620208   123A      0.636412  
     124A      0.643517   125A      0.644321   126A      0.649402  
     127A      0.651537   128A      0.679462   129A      0.685136  
     130A      0.685365   131A      0.687758   132A      0.689932  
     133A      0.690342   134A      0.694828   135A      0.703829  
     136A      0.719936   137A      0.728438   138A      0.746558  
     139A      0.746834   140A      0.754817   141A      0.766965  
     142A      0.775728   143A      0.781406   144A      0.793680  
     145A      0.799815   146A      0.802710   147A      0.811142  
     148A      0.812026   149A      0.819016   150A      0.824801  
     151A      0.831071   152A      0.847513   153A      0.848110  
     154A      0.849233   155A      0.868653   156A      0.880544  
     157A      0.886410   158A      0.888196   159A      0.894682  
     160A      0.906151   161A      0.929161   162A      0.929272  
     163A      0.939466   164A      0.947739   165A      0.949307  
     166A      0.970826   167A      0.976983   168A      0.986686  
     169A      0.996652   170A      0.998908   171A      1.013015  
     172A      1.032467   173A      1.033370   174A      1.046977  
     175A      1.051194   176A      1.076312   177A      1.089381  
     178A      1.090326   179A      1.100445   180A      1.122199  
     181A      1.124044   182A      1.130711   183A      1.134362  
     184A      1.140313   185A      1.158740   186A      1.168636  
     187A      1.170724   188A      1.173565   189A      1.192256  
     190A      1.193289   191A      1.200521   192A      1.222364  
     193A      1.235416   194A      1.238804   195A      1.251076  
     196A      1.307605   197A      1.309674   198A      1.318309  
     199A      1.326462   200A      1.329659   201A      1.331148  
     202A      1.346856   203A      1.389262   204A      1.414282  
     205A      1.448439   206A      1.451526   207A      1.455508  
     208A      1.479182   209A      1.486137   210A      1.487254  
     211A      1.488075   212A      1.499211   213A      1.502846  
     214A      1.518252   215A      1.572686   216A      1.574192  
     217A      1.587836   218A      1.635982   219A      1.640505  
     220A      1.648219   221A      1.659290   222A      1.676552  
     223A      1.698115   224A      1.716991   225A      1.746597  
     226A      1.755104   227A      1.783762   228A      1.815727  
     229A      1.893323   230A      1.916137   231A      1.964829  
     232A      1.987674   233A      2.031202   234A      2.070276  
     235A      2.091548   236A      2.101028   237A      2.102813  
     238A      2.119492   239A      2.142953   240A      2.156725  
     241A      2.159239   242A      2.163355   243A      2.190488  
     244A      2.193301   245A      2.194909   246A      2.200380  
     247A      2.202410   248A      2.227626   249A      2.234824  
     250A      2.241252   251A      2.249709   252A      2.310064  
     253A      2.312761   254A      2.319596   255A      2.355229  
     256A      2.384855   257A      2.419259   258A      2.430957  
     259A      2.435463   260A      2.438215   261A      2.438977  
     262A      2.472726   263A      2.486774   264A      2.498371  
     265A      2.519379   266A      2.522395   267A      2.525117  
     268A      2.546045   269A      2.568377   270A      2.584766  
     271A      2.592422   272A      2.606266   273A      2.626023  
     274A      2.665224   275A      2.675409   276A      2.686395  
     277A      2.713985   278A      2.716947   279A      2.718591  
     280A      2.726701   281A      2.767984   282A      2.844014  
     283A      2.865761   284A      2.904087   285A      2.939196  
     286A      2.947278   287A      2.955801   288A      2.973392  
     289A      3.001855   290A      3.017872   291A      3.032186  
     292A      3.058381   293A      3.065279   294A      3.094137  
     295A      3.113919   296A      3.220316   297A      3.245779  
     298A      3.255980   299A      3.284880   300A      3.289733  
     301A      3.322012   302A      3.337793   303A      3.340538  
     304A      3.348710   305A      3.351434   306A      3.366140  
     307A      3.412681   308A      3.413367   309A      3.470837  
     310A      3.502036   311A      3.514920   312A      3.521447  
     313A      3.590655   314A      3.604520   315A      3.605728  
     316A      3.627769   317A      3.700568   318A      3.819006  
     319A      3.830771   320A      3.941052   321A      3.969179  
     322A      3.977236   323A      4.011485   324A      4.194841  
     325A      4.242333   326A      4.253485   327A      4.442071  
     328A      4.546912   329A      4.579360   330A      4.867723  
     331A      4.976226   332A      5.057935   333A      5.261794  
     334A      5.316622   335A      5.630281   336A      5.691407  
     337A      5.827231   338A      5.952715   339A      6.283911  
     340A      6.306972   341A      6.453849   342A      6.631283  
     343A     18.125799   344A     18.208061   345A     19.017657  
     346A     19.343082   347A     25.287145   348A     25.374865  

    Final Occupation by Irrep:
              A 
    DOCC [    21 ]

  @DF-RHF Final Energy:  -262.63994484926724

   => Energetics <=

    Nuclear Repulsion Energy =            212.5517311104852922
    One-Electron Energy =                -775.4594096272600154
    Two-Electron Energy =                 300.2677336675074571
    Total Energy =                       -262.6399448492672377

Computation Completed


Properties will be evaluated at   0.000000,   0.000000,   0.000000 [a0]

Properties computed using the SCF density matrix

  Nuclear Dipole Moment: [e a0]
     X: -1425.2045      Y:  -423.1479      Z:    17.9034

  Electronic Dipole Moment: [e a0]
     X:  1425.2045      Y:   423.1479      Z:   -17.9034

  Dipole Moment: [e a0]
     X:     0.0000      Y:    -0.0000      Z:     0.0000     Total:     0.0000

  Dipole Moment: [D]
     X:     0.0000      Y:    -0.0000      Z:     0.0000     Total:     0.0000


*** tstop() called on atl1-1-01-013-8-r.pace.gatech.edu at Mon Nov 29 16:19:23 2021
Module time:
	user time   =      13.84 seconds =       0.23 minutes
	system time =       0.43 seconds =       0.01 minutes
	total time  =          8 seconds =       0.13 minutes
Total time:
	user time   =      50.46 seconds =       0.84 minutes
	system time =       1.88 seconds =       0.03 minutes
	total time  =         28 seconds =       0.47 minutes
  Constructing Basis Sets for SAPT...

   => Loading Basis Set <=

    Name: (AUG-CC-PVDZ AUX)
    Role: RIFIT
    Keyword: DF_BASIS_SAPT
    atoms 1-2, 11-12  entry N          line   158 file /storage/home/hhive1/csargent30/data/miniconda3/envs/psi4/share/psi4/basis/aug-cc-pvdz-ri.gbs 
    atoms 3-6, 13-16  entry H          line    30 file /storage/home/hhive1/csargent30/data/miniconda3/envs/psi4/share/psi4/basis/aug-cc-pvdz-ri.gbs 
    atoms 7-10, 17-20 entry C          line   112 file /storage/home/hhive1/csargent30/data/miniconda3/envs/psi4/share/psi4/basis/aug-cc-pvdz-ri.gbs 


  //>>>>>>>>>>>>>>>>>>>>>>>>>>>>>>>>>>>//
  //               SAPT0               //
  //<<<<<<<<<<<<<<<<<<<<<<<<<<<<<<<<<<<//


*** tstart() called on atl1-1-01-013-8-r.pace.gatech.edu
*** at Mon Nov 29 16:19:23 2021

        SAPT0  
    Ed Hohenstein
     6 June 2009

      Orbital Information
  --------------------------
    NSO        =       348
    NMO        =       348
    NRI        =      1048
    NOCC A     =        21
    NOCC B     =        21
    FOCC A     =         6
    FOCC B     =         6
    NVIR A     =       327
    NVIR B     =       327

    Elst10,r            =     0.000002084684 [Eh]
    Exch10              =     0.000000000000 [Eh]
    Exch10 (S^2)        =     0.000000000000 [Eh]

    Iter     Energy [mEh]          dE [mEh]         Residual      Time [s]
       1      -0.00000423       0.000004235       0.024153375             0
       2      -0.00000379      -0.000000447       0.005326862             0
       3      -0.00000420       0.000000414       0.001917034             1
       4      -0.00000424       0.000000037       0.000828299             1
       5      -0.00000423      -0.000000012       0.000453634             1
       6      -0.00000422      -0.000000006       0.000168733             2
       7      -0.00000422       0.000000001       0.000065521             2
       8      -0.00000422       0.000000001       0.000016753             3
       9      -0.00000422      -0.000000000       0.000005752             3
      10      -0.00000422      -0.000000000       0.000001672             3
      11      -0.00000422       0.000000000       0.000000793             4

    CHF Iterations converged


    Iter     Energy [mEh]          dE [mEh]         Residual      Time [s]
       1      -0.00000423       0.000004235       0.024153376             0
       2      -0.00000379      -0.000000447       0.005326862             0
       3      -0.00000420       0.000000414       0.001917034             1
       4      -0.00000424       0.000000037       0.000828299             1
       5      -0.00000423      -0.000000012       0.000453634             1
       6      -0.00000422      -0.000000006       0.000168733             2
       7      -0.00000422       0.000000001       0.000065521             2
       8      -0.00000422       0.000000001       0.000016753             2
       9      -0.00000422      -0.000000000       0.000005752             3
      10      -0.00000422      -0.000000000       0.000001672             3
      11      -0.00000422       0.000000000       0.000000793             4

    CHF Iterations converged

    Ind20,r (A<-B)      =    -0.000000004223 [Eh]
    Ind20,r (B<-A)      =    -0.000000004223 [Eh]
    Ind20,r             =    -0.000000008446 [Eh]
    Exch-Ind20,r (A<-B) =     0.000000000000 [Eh]
    Exch-Ind20,r (B<-A) =     0.000000000000 [Eh]
    Exch-Ind20,r        =     0.000000000000 [Eh]
    Disp20              =    -0.000000765652 [Eh]
    Disp20 (SS)         =    -0.000000382826 [Eh]
    Disp20 (OS)         =    -0.000000382826 [Eh]
    Exch-Disp20         =     0.000000000000 [Eh]
    Exch-Disp20 (SS)    =     0.000000000000 [Eh]
    Exch-Disp20 (OS)    =     0.000000000000 [Eh]

    SAPT Results 
  --------------------------------------------------------------------------------------------------------
    Electrostatics                  0.00208468 [mEh]       0.00130816 [kcal/mol]       0.00547334 [kJ/mol]
      Elst10,r                      0.00208468 [mEh]       0.00130816 [kcal/mol]       0.00547334 [kJ/mol]

    Exchange                        0.00000000 [mEh]       0.00000000 [kcal/mol]       0.00000000 [kJ/mol]
      Exch10                        0.00000000 [mEh]       0.00000000 [kcal/mol]       0.00000000 [kJ/mol]
      Exch10(S^2)                   0.00000000 [mEh]       0.00000000 [kcal/mol]       0.00000000 [kJ/mol]

    Induction                       0.00002215 [mEh]       0.00001390 [kcal/mol]       0.00005815 [kJ/mol]
      Ind20,r                      -0.00000845 [mEh]      -0.00000530 [kcal/mol]      -0.00002218 [kJ/mol]
      Exch-Ind20,r                  0.00000000 [mEh]       0.00000000 [kcal/mol]       0.00000000 [kJ/mol]
      delta HF,r (2)                0.00003059 [mEh]       0.00001920 [kcal/mol]       0.00008032 [kJ/mol]

    Dispersion                     -0.00076565 [mEh]      -0.00048045 [kcal/mol]      -0.00201022 [kJ/mol]
      Disp20                       -0.00076565 [mEh]      -0.00048045 [kcal/mol]      -0.00201022 [kJ/mol]
      Exch-Disp20                   0.00000000 [mEh]       0.00000000 [kcal/mol]       0.00000000 [kJ/mol]
      Disp20 (SS)                  -0.00038283 [mEh]      -0.00024023 [kcal/mol]      -0.00100511 [kJ/mol]
      Disp20 (OS)                  -0.00038283 [mEh]      -0.00024023 [kcal/mol]      -0.00100511 [kJ/mol]
      Exch-Disp20 (SS)              0.00000000 [mEh]       0.00000000 [kcal/mol]       0.00000000 [kJ/mol]
      Exch-Disp20 (OS)              0.00000000 [mEh]       0.00000000 [kcal/mol]       0.00000000 [kJ/mol]

  Total HF                          0.00210683 [mEh]       0.00132206 [kcal/mol]       0.00553148 [kJ/mol]
  Total SAPT0                       0.00134118 [mEh]       0.00084160 [kcal/mol]       0.00352126 [kJ/mol]

  Special recipe for scaled SAPT0 (see Manual):
    Electrostatics sSAPT0           0.00208468 [mEh]       0.00130816 [kcal/mol]       0.00547334 [kJ/mol]
    Exchange sSAPT0                 0.00000000 [mEh]       0.00000000 [kcal/mol]       0.00000000 [kJ/mol]
    Induction sSAPT0                0.00002215 [mEh]       0.00001390 [kcal/mol]       0.00005815 [kJ/mol]
    Dispersion sSAPT0              -0.00076565 [mEh]      -0.00048045 [kcal/mol]      -0.00201022 [kJ/mol]
  Total sSAPT0                      0.00134118 [mEh]       0.00084160 [kcal/mol]       0.00352126 [kJ/mol]
  --------------------------------------------------------------------------------------------------------

*** tstop() called on atl1-1-01-013-8-r.pace.gatech.edu at Mon Nov 29 16:19:48 2021
Module time:
	user time   =      37.25 seconds =       0.62 minutes
	system time =       8.73 seconds =       0.15 minutes
	total time  =         25 seconds =       0.42 minutes
Total time:
	user time   =      87.96 seconds =       1.47 minutes
	system time =      10.62 seconds =       0.18 minutes
	total time  =         53 seconds =       0.88 minutes


Warning! sapt0 does not have an associated derived wavefunction.The returned wavefunction is the dimer SCF wavefunction.


    Psi4 stopped on: Monday, 29 November 2021 04:19PM
    Psi4 wall time for execution: 0:00:53.18

*** Psi4 exiting successfully. Buy a developer a beer!
