
    -----------------------------------------------------------------------
          Psi4: An Open-Source Ab Initio Electronic Structure Package
                               Psi4 1.4.1 release

                         Git: Rev {HEAD} cd00f19 


    D. G. A. Smith, L. A. Burns, A. C. Simmonett, R. M. Parrish,
    M. C. Schieber, R. Galvelis, P. Kraus, H. Kruse, R. Di Remigio,
    A. Alenaizan, A. M. James, S. Lehtola, J. P. Misiewicz, M. Scheurer,
    R. A. Shaw, J. B. Schriber, Y. Xie, Z. L. Glick, D. A. Sirianni,
    J. S. O'Brien, J. M. Waldrop, A. Kumar, E. G. Hohenstein,
    B. P. Pritchard, B. R. Brooks, H. F. Schaefer III, A. Yu. Sokolov,
    K. Patkowski, A. E. DePrince III, U. Bozkaya, R. A. King,
    F. A. Evangelista, J. M. Turney, T. D. Crawford, C. D. Sherrill,
    J. Chem. Phys. 152(18) 184108 (2020). https://doi.org/10.1063/5.0006002

                            Additional Code Authors
    E. T. Seidl, C. L. Janssen, E. F. Valeev, M. L. Leininger,
    J. F. Gonthier, R. M. Richard, H. R. McAlexander, M. Saitow, X. Wang,
    P. Verma, and M. H. Lechner

             Previous Authors, Complete List of Code Contributors,
                       and Citations for Specific Modules
    https://github.com/psi4/psi4/blob/master/codemeta.json
    https://github.com/psi4/psi4/graphs/contributors
    http://psicode.org/psi4manual/master/introduction.html#citing-psifour

    -----------------------------------------------------------------------


    Psi4 started on: Monday, 29 November 2021 04:10PM

    Process ID: 152493
    Host:       atl1-1-01-015-3-r.pace.gatech.edu
    PSIDATADIR: /storage/home/hhive1/csargent30/data/miniconda3/envs/psi4/share/psi4
    Memory:     500.0 MiB
    Threads:    2
    
  ==> Input File <==

--------------------------------------------------------------------------
# PSI4 file produced by CrystaLattE

# Generated from:               pyrazine.xyz
# Psithon input for N-mer:      2mer-0+340
# Number of atoms per monomer:  [10, 10]
# Number of replicas:           4
# COM priority:                 1.548558305429e-05
# Minimum COM separations:      21.230 
# Separation priority:          2.551469455236e-05
# Minimum monomer separations:  17.975 
# Cutoff priority:              7.511393224902e-07
# Nuclear repulsion energy:     469.0446790442466

memory 7 GB

molecule Dimer_0_340 {
  N           -1.33084758       0.98032658       0.42627037 
  N            3.95377333       0.98032658       0.42627037 
  H            3.56713674       4.35218569      -0.94230973 
  H           -0.94421098       4.35218569      -0.94230973 
  H           -0.94421098      -2.39153253       1.79485047 
  H            3.56713674      -2.39153253       1.79485047 
  C            2.62292576       2.94097974      -0.42627037 
  C            0.00000000       2.94097974      -0.42627037 
  C            0.00000000      -0.98032658       1.27881112 
  C            2.62292576      -0.98032658       1.27881112 
--
  N          -18.95329959     -32.18550076     -13.68280282 
  N          -13.66867868     -32.18550076     -13.68280282 
  H          -14.05531527     -28.81364165     -15.05138292 
  H          -18.56666299     -28.81364165     -15.05138292 
  H          -18.56666299     -35.55735987     -12.31422272 
  H          -14.05531527     -35.55735987     -12.31422272 
  C          -14.99952625     -30.22484760     -14.53534357 
  C          -17.62245201     -30.22484760     -14.53534357 
  C          -17.62245201     -34.14615392     -12.83026208 
  C          -14.99952625     -34.14615392     -12.83026208 
units = au
no_com
no_reorient
}

set {
  e_convergence 10
  d_convergence 10
  scf_type df
  mp2_type df
  cc_type df
  freeze_core true
}

energy('sapt0/aug-cc-pvdz')

--------------------------------------------------------------------------

  Memory set to   6.519 GiB by Python driver.

Scratch directory: /tmp/

Scratch directory: /tmp/

  //>>>>>>>>>>>>>>>>>>>>>>>>>>>>>>>>>>>//
  //              Dimer HF             //
  //<<<<<<<<<<<<<<<<<<<<<<<<<<<<<<<<<<<//


*** tstart() called on atl1-1-01-015-3-r.pace.gatech.edu
*** at Mon Nov 29 16:10:42 2021

   => Loading Basis Set <=

    Name: AUG-CC-PVDZ
    Role: ORBITAL
    Keyword: BASIS
    atoms 1-2, 11-12  entry N          line   218 file /storage/home/hhive1/csargent30/data/miniconda3/envs/psi4/share/psi4/basis/aug-cc-pvdz.gbs 
    atoms 3-6, 13-16  entry H          line    40 file /storage/home/hhive1/csargent30/data/miniconda3/envs/psi4/share/psi4/basis/aug-cc-pvdz.gbs 
    atoms 7-10, 17-20 entry C          line   182 file /storage/home/hhive1/csargent30/data/miniconda3/envs/psi4/share/psi4/basis/aug-cc-pvdz.gbs 


         ---------------------------------------------------------
                                   SCF
               by Justin Turney, Rob Parrish, Andy Simmonett
                          and Daniel G. A. Smith
                              RHF Reference
                        2 Threads,   6675 MiB Core
         ---------------------------------------------------------

  ==> Geometry <==

    Molecular point group: c1
    Full point group: C1

    Geometry (in Bohr), charge = 0, multiplicity = 1:

       Center              X                  Y                   Z               Mass       
    ------------   -----------------  -----------------  -----------------  -----------------
         N           -1.330847580000     0.980326580000     0.426270370000    14.003074004430
         N            3.953773330000     0.980326580000     0.426270370000    14.003074004430
         H            3.567136740000     4.352185690000    -0.942309730000     1.007825032230
         H           -0.944210980000     4.352185690000    -0.942309730000     1.007825032230
         H           -0.944210980000    -2.391532530000     1.794850470000     1.007825032230
         H            3.567136740000    -2.391532530000     1.794850470000     1.007825032230
         C            2.622925760000     2.940979740000    -0.426270370000    12.000000000000
         C            0.000000000000     2.940979740000    -0.426270370000    12.000000000000
         C            0.000000000000    -0.980326580000     1.278811120000    12.000000000000
         C            2.622925760000    -0.980326580000     1.278811120000    12.000000000000
         N          -18.953299590000   -32.185500760000   -13.682802820000    14.003074004430
         N          -13.668678680000   -32.185500760000   -13.682802820000    14.003074004430
         H          -14.055315270000   -28.813641650000   -15.051382920000     1.007825032230
         H          -18.566662990000   -28.813641650000   -15.051382920000     1.007825032230
         H          -18.566662990000   -35.557359870000   -12.314222720000     1.007825032230
         H          -14.055315270000   -35.557359870000   -12.314222720000     1.007825032230
         C          -14.999526250000   -30.224847600000   -14.535343570000    12.000000000000
         C          -17.622452010000   -30.224847600000   -14.535343570000    12.000000000000
         C          -17.622452010000   -34.146153920000   -12.830262080000    12.000000000000
         C          -14.999526250000   -34.146153920000   -12.830262080000    12.000000000000

  Running in c1 symmetry.

  Rotational constants: A =      0.06964  B =      0.00050  C =      0.00050 [cm^-1]
  Rotational constants: A =   2087.85451  B =     15.04687  C =     14.99983 [MHz]
  Nuclear repulsion =  469.044679039853804

  Charge       = 0
  Multiplicity = 1
  Electrons    = 84
  Nalpha       = 42
  Nbeta        = 42

  ==> Algorithm <==

  SCF Algorithm Type is DF.
  DIIS enabled.
  MOM disabled.
  Fractional occupation disabled.
  Guess Type is SAD.
  Energy threshold   = 1.00e-10
  Density threshold  = 1.00e-10
  Integral threshold = 1.00e-12

  ==> Primary Basis <==

  Basis Set: AUG-CC-PVDZ
    Blend: AUG-CC-PVDZ
    Number of shells: 148
    Number of basis functions: 348
    Number of Cartesian functions: 372
    Spherical Harmonics?: true
    Max angular momentum: 2

   => Loading Basis Set <=

    Name: (AUG-CC-PVDZ AUX)
    Role: JKFIT
    Keyword: DF_BASIS_SCF
    atoms 1-2, 11-12  entry N          line   212 file /storage/home/hhive1/csargent30/data/miniconda3/envs/psi4/share/psi4/basis/aug-cc-pvdz-jkfit.gbs 
    atoms 3-6, 13-16  entry H          line    70 file /storage/home/hhive1/csargent30/data/miniconda3/envs/psi4/share/psi4/basis/aug-cc-pvdz-jkfit.gbs 
    atoms 7-10, 17-20 entry C          line   154 file /storage/home/hhive1/csargent30/data/miniconda3/envs/psi4/share/psi4/basis/aug-cc-pvdz-jkfit.gbs 

  ==> Integral Setup <==

  ==> DiskDFJK: Density-Fitted J/K Matrices <==

    J tasked:                  Yes
    K tasked:                  Yes
    wK tasked:                  No
    OpenMP threads:              2
    Integrals threads:           2
    Memory [MiB]:             5006
    Algorithm:                Core
    Integral Cache:           SAVE
    Schwarz Cutoff:          1E-12
    Fitting Condition:       1E-10

   => Auxiliary Basis Set <=

  Basis Set: (AUG-CC-PVDZ AUX)
    Blend: AUG-CC-PVDZ-JKFIT
    Number of shells: 432
    Number of basis functions: 1288
    Number of Cartesian functions: 1492
    Spherical Harmonics?: true
    Max angular momentum: 3

  Minimum eigenvalue in the overlap matrix is 9.4898345743E-06.
  Reciprocal condition number of the overlap matrix is 7.4017598388E-07.
    Using symmetric orthogonalization.

  ==> Pre-Iterations <==

  SCF Guess: Superposition of Atomic Densities via on-the-fly atomic UHF (no occupation information).

   -------------------------
    Irrep   Nso     Nmo    
   -------------------------
     A        348     348 
   -------------------------
    Total     348     348
   -------------------------

  ==> Iterations <==

                           Total Energy        Delta E     RMS |[F,P]|

   @DF-RHF iter SAD:  -524.65046251685214   -5.24650e+02   0.00000e+00 
   @DF-RHF iter   1:  -525.07881825524623   -4.28356e-01   1.58371e-03 DIIS
   @DF-RHF iter   2:  -525.25757892981233   -1.78761e-01   5.80761e-04 DIIS
   @DF-RHF iter   3:  -525.27724767332393   -1.96687e-02   1.81368e-04 DIIS
   @DF-RHF iter   4:  -525.27969714877429   -2.44948e-03   5.34002e-05 DIIS
   @DF-RHF iter   5:  -525.27987634735166   -1.79199e-04   1.06852e-05 DIIS
   @DF-RHF iter   6:  -525.27988944779383   -1.31004e-05   3.46852e-06 DIIS
   @DF-RHF iter   7:  -525.27989135249345   -1.90470e-06   9.05273e-07 DIIS
   @DF-RHF iter   8:  -525.27989150026110   -1.47768e-07   1.40445e-07 DIIS
   @DF-RHF iter   9:  -525.27989150423127   -3.97017e-09   2.82674e-08 DIIS
   @DF-RHF iter  10:  -525.27989150436952   -1.38243e-10   1.20704e-08 DIIS
   @DF-RHF iter  11:  -525.27989150438145   -1.19371e-11   3.25792e-09 DIIS
   @DF-RHF iter  12:  -525.27989150438407   -2.61480e-12   4.84393e-10 DIIS
   @DF-RHF iter  13:  -525.27989150438270    1.36424e-12   2.03438e-10 DIIS
   @DF-RHF iter  14:  -525.27989150438316   -4.54747e-13   5.91429e-11 DIIS
  Energy and wave function converged.


  ==> Post-Iterations <==

    Orbital Energies [Eh]
    ---------------------

    Doubly Occupied:                                                      

       1A    -15.598097     2A    -15.598097     3A    -15.598078  
       4A    -15.598078     5A    -11.274263     6A    -11.274263  
       7A    -11.274218     8A    -11.274218     9A    -11.272999  
      10A    -11.272999    11A    -11.272994    12A    -11.272994  
      13A     -1.313372    14A     -1.313372    15A     -1.224201  
      16A     -1.224201    17A     -1.076828    18A     -1.076828  
      19A     -0.922687    20A     -0.922687    21A     -0.919307  
      22A     -0.919307    23A     -0.760661    24A     -0.760661  
      25A     -0.738426    26A     -0.738426    27A     -0.706238  
      28A     -0.706238    29A     -0.647712    30A     -0.647712  
      31A     -0.580735    32A     -0.580735    33A     -0.574394  
      34A     -0.574394    35A     -0.497138    36A     -0.497138  
      37A     -0.434313    38A     -0.434313    39A     -0.415880  
      40A     -0.415880    41A     -0.359949    42A     -0.359949  

    Virtual:                                                              

      43A      0.034477    44A      0.034477    45A      0.040723  
      46A      0.040723    47A      0.048362    48A      0.048363  
      49A      0.058574    50A      0.058575    51A      0.067088  
      52A      0.067088    53A      0.099395    54A      0.099395  
      55A      0.100925    56A      0.100925    57A      0.114175  
      58A      0.114175    59A      0.114924    60A      0.114924  
      61A      0.123754    62A      0.123755    63A      0.125297  
      64A      0.125297    65A      0.128641    66A      0.128641  
      67A      0.132865    68A      0.132865    69A      0.158182  
      70A      0.158183    71A      0.161064    72A      0.161064  
      73A      0.161307    74A      0.161308    75A      0.163892  
      76A      0.163893    77A      0.175159    78A      0.175160  
      79A      0.186893    80A      0.186893    81A      0.203884  
      82A      0.203884    83A      0.212511    84A      0.212511  
      85A      0.250491    86A      0.250491    87A      0.267731  
      88A      0.267731    89A      0.278031    90A      0.278031  
      91A      0.287786    92A      0.287786    93A      0.293183  
      94A      0.293183    95A      0.295723    96A      0.295725  
      97A      0.314810    98A      0.314810    99A      0.320432  
     100A      0.320432   101A      0.355404   102A      0.355405  
     103A      0.357884   104A      0.357884   105A      0.364636  
     106A      0.364636   107A      0.382559   108A      0.382560  
     109A      0.398869   110A      0.398869   111A      0.409872  
     112A      0.409872   113A      0.425431   114A      0.425432  
     115A      0.433902   116A      0.433902   117A      0.437191  
     118A      0.437192   119A      0.452068   120A      0.452068  
     121A      0.471459   122A      0.471459   123A      0.492116  
     124A      0.492116   125A      0.504838   126A      0.504838  
     127A      0.514889   128A      0.514889   129A      0.524523  
     130A      0.524523   131A      0.528643   132A      0.528644  
     133A      0.554553   134A      0.554553   135A      0.570512  
     136A      0.570512   137A      0.587510   138A      0.587510  
     139A      0.591480   140A      0.591480   141A      0.593775  
     142A      0.593775   143A      0.608906   144A      0.608906  
     145A      0.643493   146A      0.643493   147A      0.644298  
     148A      0.644298   149A      0.685111   150A      0.685112  
     151A      0.687734   152A      0.687734   153A      0.689908  
     154A      0.689908   155A      0.690317   156A      0.690318  
     157A      0.694805   158A      0.694805   159A      0.703806  
     160A      0.703807   161A      0.746536   162A      0.746536  
     163A      0.754794   164A      0.754794   165A      0.766940  
     166A      0.766940   167A      0.781380   168A      0.781380  
     169A      0.799792   170A      0.799792   171A      0.802685  
     172A      0.802685   173A      0.818990   174A      0.818990  
     175A      0.831046   176A      0.831046   177A      0.847489  
     178A      0.847489   179A      0.880520   180A      0.880520  
     181A      0.886386   182A      0.886386   183A      0.894657  
     184A      0.894657   185A      0.929248   186A      0.929248  
     187A      0.939441   188A      0.939441   189A      0.949283  
     190A      0.949283   191A      0.996627   192A      0.996627  
     193A      0.998883   194A      0.998883   195A      1.012990  
     196A      1.012990   197A      1.033346   198A      1.033346  
     199A      1.051170   200A      1.051170   201A      1.089356  
     202A      1.089356   203A      1.100420   204A      1.100420  
     205A      1.122174   206A      1.122175   207A      1.124019  
     208A      1.124019   209A      1.134338   210A      1.134338  
     211A      1.158716   212A      1.158716   213A      1.173540  
     214A      1.173540   215A      1.235392   216A      1.235392  
     217A      1.238781   218A      1.238781   219A      1.309649  
     220A      1.309649   221A      1.331123   222A      1.331123  
     223A      1.414258   224A      1.414258   225A      1.451501  
     226A      1.451501   227A      1.486112   228A      1.486112  
     229A      1.488050   230A      1.488050   231A      1.499186  
     232A      1.499186   233A      1.502821   234A      1.502821  
     235A      1.518228   236A      1.518228   237A      1.572661  
     238A      1.572661   239A      1.574168   240A      1.574168  
     241A      1.587811   242A      1.587812   243A      1.635958  
     244A      1.635958   245A      1.640481   246A      1.640481  
     247A      1.648195   248A      1.648195   249A      1.676528  
     250A      1.676528   251A      1.716966   252A      1.716966  
     253A      1.746573   254A      1.746573   255A      1.755080  
     256A      1.755080   257A      1.783737   258A      1.783737  
     259A      1.815703   260A      1.815703   261A      1.893299  
     262A      1.893299   263A      1.916113   264A      1.916113  
     265A      1.964804   266A      1.964804   267A      1.987650  
     268A      1.987650   269A      2.031178   270A      2.031178  
     271A      2.091524   272A      2.091524   273A      2.101003  
     274A      2.101003   275A      2.142929   276A      2.142929  
     277A      2.163331   278A      2.163331   279A      2.190464  
     280A      2.190464   281A      2.193277   282A      2.193277  
     283A      2.200356   284A      2.200356   285A      2.202386  
     286A      2.202386   287A      2.227601   288A      2.227601  
     289A      2.312736   290A      2.312736   291A      2.355205  
     292A      2.355205   293A      2.430932   294A      2.430932  
     295A      2.438952   296A      2.438952   297A      2.519355  
     298A      2.519355   299A      2.522371   300A      2.522371  
     301A      2.584741   302A      2.584741   303A      2.606241  
     304A      2.606241   305A      2.665200   306A      2.665200  
     307A      2.675384   308A      2.675384   309A      2.686370  
     310A      2.686370   311A      2.713959   312A      2.713960  
     313A      2.718567   314A      2.718567   315A      2.843989  
     316A      2.843989   317A      2.865736   318A      2.865736  
     319A      2.939171   320A      2.939171   321A      3.001831  
     322A      3.001831   323A      3.017847   324A      3.017847  
     325A      3.032161   326A      3.032161   327A      3.094112  
     328A      3.094113   329A      3.220291   330A      3.220292  
     331A      3.255955   332A      3.255955   333A      3.284855  
     334A      3.284855   335A      3.366115   336A      3.366115  
     337A      3.413343   338A      3.413343   339A      3.514895  
     340A      3.514895   341A      3.590630   342A      3.590630  
     343A      3.627744   344A      3.627744   345A      3.977212  
     346A      3.977212   347A      4.253461   348A      4.253461  

    Final Occupation by Irrep:
              A 
    DOCC [    42 ]

  @DF-RHF Final Energy:  -525.27989150438316

   => Energetics <=

    Nuclear Repulsion Energy =            469.0446790398538042
    One-Electron Energy =               -1638.7991846436716514
    Two-Electron Energy =                 644.4746140994348025
    Total Energy =                       -525.2798915043831585

Computation Completed


Properties will be evaluated at   0.000000,   0.000000,   0.000000 [a0]

Properties computed using the SCF density matrix

  Nuclear Dipole Moment: [e a0]
     X:  -629.9801      Y: -1310.6173      Z:  -556.7744

  Electronic Dipole Moment: [e a0]
     X:   629.9801      Y:  1310.6173      Z:   556.7744

  Dipole Moment: [e a0]
     X:     0.0000      Y:    -0.0000      Z:     0.0000     Total:     0.0000

  Dipole Moment: [D]
     X:     0.0000      Y:    -0.0000      Z:     0.0000     Total:     0.0000


*** tstop() called on atl1-1-01-015-3-r.pace.gatech.edu at Mon Nov 29 16:10:56 2021
Module time:
	user time   =      25.52 seconds =       0.43 minutes
	system time =       1.00 seconds =       0.02 minutes
	total time  =         14 seconds =       0.23 minutes
Total time:
	user time   =      25.52 seconds =       0.43 minutes
	system time =       1.00 seconds =       0.02 minutes
	total time  =         14 seconds =       0.23 minutes

  //>>>>>>>>>>>>>>>>>>>>>>>>>>>>>>>>>>>//
  //            Monomer A HF           //
  //<<<<<<<<<<<<<<<<<<<<<<<<<<<<<<<<<<<//


*** tstart() called on atl1-1-01-015-3-r.pace.gatech.edu
*** at Mon Nov 29 16:10:56 2021

   => Loading Basis Set <=

    Name: AUG-CC-PVDZ
    Role: ORBITAL
    Keyword: BASIS
    atoms 1-2, 11-12  entry N          line   218 file /storage/home/hhive1/csargent30/data/miniconda3/envs/psi4/share/psi4/basis/aug-cc-pvdz.gbs 
    atoms 3-6, 13-16  entry H          line    40 file /storage/home/hhive1/csargent30/data/miniconda3/envs/psi4/share/psi4/basis/aug-cc-pvdz.gbs 
    atoms 7-10, 17-20 entry C          line   182 file /storage/home/hhive1/csargent30/data/miniconda3/envs/psi4/share/psi4/basis/aug-cc-pvdz.gbs 


         ---------------------------------------------------------
                                   SCF
               by Justin Turney, Rob Parrish, Andy Simmonett
                          and Daniel G. A. Smith
                              RHF Reference
                        2 Threads,   6675 MiB Core
         ---------------------------------------------------------

  ==> Geometry <==

    Molecular point group: c1
    Full point group: C1

    Geometry (in Bohr), charge = 0, multiplicity = 1:

       Center              X                  Y                   Z               Mass       
    ------------   -----------------  -----------------  -----------------  -----------------
         N           -1.330847580000     0.980326580000     0.426270370000    14.003074004430
         N            3.953773330000     0.980326580000     0.426270370000    14.003074004430
         H            3.567136740000     4.352185690000    -0.942309730000     1.007825032230
         H           -0.944210980000     4.352185690000    -0.942309730000     1.007825032230
         H           -0.944210980000    -2.391532530000     1.794850470000     1.007825032230
         H            3.567136740000    -2.391532530000     1.794850470000     1.007825032230
         C            2.622925760000     2.940979740000    -0.426270370000    12.000000000000
         C            0.000000000000     2.940979740000    -0.426270370000    12.000000000000
         C            0.000000000000    -0.980326580000     1.278811120000    12.000000000000
         C            2.622925760000    -0.980326580000     1.278811120000    12.000000000000
      Gh(N)         -18.953299590000   -32.185500760000   -13.682802820000    14.003074004430
      Gh(N)         -13.668678680000   -32.185500760000   -13.682802820000    14.003074004430
      Gh(H)         -14.055315270000   -28.813641650000   -15.051382920000     1.007825032230
      Gh(H)         -18.566662990000   -28.813641650000   -15.051382920000     1.007825032230
      Gh(H)         -18.566662990000   -35.557359870000   -12.314222720000     1.007825032230
      Gh(H)         -14.055315270000   -35.557359870000   -12.314222720000     1.007825032230
      Gh(C)         -14.999526250000   -30.224847600000   -14.535343570000    12.000000000000
      Gh(C)         -17.622452010000   -30.224847600000   -14.535343570000    12.000000000000
      Gh(C)         -17.622452010000   -34.146153920000   -12.830262080000    12.000000000000
      Gh(C)         -14.999526250000   -34.146153920000   -12.830262080000    12.000000000000

  Running in c1 symmetry.

  Rotational constants: A =      0.06964  B =      0.00050  C =      0.00050 [cm^-1]
  Rotational constants: A =   2087.85451  B =     15.04687  C =     14.99983 [MHz]
  Nuclear repulsion =  212.551731110485349

  Charge       = 0
  Multiplicity = 1
  Electrons    = 42
  Nalpha       = 21
  Nbeta        = 21

  ==> Algorithm <==

  SCF Algorithm Type is DF.
  DIIS enabled.
  MOM disabled.
  Fractional occupation disabled.
  Guess Type is SAD.
  Energy threshold   = 1.00e-10
  Density threshold  = 1.00e-10
  Integral threshold = 1.00e-12

  ==> Primary Basis <==

  Basis Set: AUG-CC-PVDZ
    Blend: AUG-CC-PVDZ
    Number of shells: 148
    Number of basis functions: 348
    Number of Cartesian functions: 372
    Spherical Harmonics?: true
    Max angular momentum: 2

   => Loading Basis Set <=

    Name: (AUG-CC-PVDZ AUX)
    Role: JKFIT
    Keyword: DF_BASIS_SCF
    atoms 1-2, 11-12  entry N          line   212 file /storage/home/hhive1/csargent30/data/miniconda3/envs/psi4/share/psi4/basis/aug-cc-pvdz-jkfit.gbs 
    atoms 3-6, 13-16  entry H          line    70 file /storage/home/hhive1/csargent30/data/miniconda3/envs/psi4/share/psi4/basis/aug-cc-pvdz-jkfit.gbs 
    atoms 7-10, 17-20 entry C          line   154 file /storage/home/hhive1/csargent30/data/miniconda3/envs/psi4/share/psi4/basis/aug-cc-pvdz-jkfit.gbs 

  ==> Integral Setup <==

  ==> DiskDFJK: Density-Fitted J/K Matrices <==

    J tasked:                  Yes
    K tasked:                  Yes
    wK tasked:                  No
    OpenMP threads:              2
    Integrals threads:           2
    Memory [MiB]:             5006
    Algorithm:                Core
    Integral Cache:           LOAD
    Schwarz Cutoff:          1E-12
    Fitting Condition:       1E-10

   => Auxiliary Basis Set <=

  Basis Set: (AUG-CC-PVDZ AUX)
    Blend: AUG-CC-PVDZ-JKFIT
    Number of shells: 432
    Number of basis functions: 1288
    Number of Cartesian functions: 1492
    Spherical Harmonics?: true
    Max angular momentum: 3

  Minimum eigenvalue in the overlap matrix is 9.4898345743E-06.
  Reciprocal condition number of the overlap matrix is 7.4017598388E-07.
    Using symmetric orthogonalization.

  ==> Pre-Iterations <==

  SCF Guess: Superposition of Atomic Densities via on-the-fly atomic UHF (no occupation information).

   -------------------------
    Irrep   Nso     Nmo    
   -------------------------
     A        348     348 
   -------------------------
    Total     348     348
   -------------------------

  ==> Iterations <==

                           Total Energy        Delta E     RMS |[F,P]|

   @DF-RHF iter SAD:  -262.32523125844762   -2.62325e+02   0.00000e+00 
   @DF-RHF iter   1:  -262.53940798273732   -2.14177e-01   1.11985e-03 DIIS
   @DF-RHF iter   2:  -262.62878837513256   -8.93804e-02   4.10664e-04 DIIS
   @DF-RHF iter   3:  -262.63862291969144   -9.83454e-03   1.28248e-04 DIIS
   @DF-RHF iter   4:  -262.63984767296552   -1.22475e-03   3.77599e-05 DIIS
   @DF-RHF iter   5:  -262.63993727342751   -8.96005e-05   7.55558e-06 DIIS
   @DF-RHF iter   6:  -262.63994382368747   -6.55026e-06   2.45264e-06 DIIS
   @DF-RHF iter   7:  -262.63994477606036   -9.52373e-07   6.40130e-07 DIIS
   @DF-RHF iter   8:  -262.63994484994907   -7.38887e-08   9.91693e-08 DIIS
   @DF-RHF iter   9:  -262.63994485193467   -1.98560e-09   1.88228e-08 DIIS
   @DF-RHF iter  10:  -262.63994485200527   -7.05995e-11   3.19151e-09 DIIS
   @DF-RHF iter  11:  -262.63994485200760   -2.33058e-12   5.22317e-10 DIIS
   @DF-RHF iter  12:  -262.63994485200760    0.00000e+00   9.54328e-11 DIIS
  Energy and wave function converged.


  ==> Post-Iterations <==

    Orbital Energies [Eh]
    ---------------------

    Doubly Occupied:                                                      

       1A    -15.598072     2A    -15.598053     3A    -11.274239  
       4A    -11.274194     5A    -11.272975     6A    -11.272969  
       7A     -1.313347     8A     -1.224176     9A     -1.076803  
      10A     -0.922662    11A     -0.919282    12A     -0.760637  
      13A     -0.738402    14A     -0.706214    15A     -0.647687  
      16A     -0.580711    17A     -0.574369    18A     -0.497113  
      19A     -0.434288    20A     -0.415855    21A     -0.359924  

    Virtual:                                                              

      22A      0.022337    23A      0.034497    24A      0.039416  
      25A      0.040739    26A      0.041082    27A      0.048384  
      28A      0.058591    29A      0.058757    30A      0.067113  
      31A      0.079580    32A      0.084955    33A      0.099419  
      34A      0.100948    35A      0.103899    36A      0.108410  
      37A      0.108754    38A      0.114201    39A      0.114951  
      40A      0.122399    41A      0.123776    42A      0.125322  
      43A      0.125494    44A      0.128661    45A      0.130842  
      46A      0.132889    47A      0.134055    48A      0.152010  
      49A      0.152928    50A      0.158199    51A      0.159243  
      52A      0.161084    53A      0.161326    54A      0.163914  
      55A      0.175179    56A      0.176649    57A      0.186918  
      58A      0.197700    59A      0.203805    60A      0.203908  
      61A      0.206561    62A      0.212538    63A      0.222285  
      64A      0.233511    65A      0.239338    66A      0.250517  
      67A      0.255118    68A      0.267756    69A      0.270677  
      70A      0.278056    71A      0.287812    72A      0.293207  
      73A      0.295749    74A      0.302226    75A      0.314832  
      76A      0.320457    77A      0.320540    78A      0.328059  
      79A      0.331201    80A      0.344018    81A      0.355428  
      82A      0.357908    83A      0.364661    84A      0.380399  
      85A      0.382583    86A      0.385535    87A      0.398891  
      88A      0.401172    89A      0.409895    90A      0.419172  
      91A      0.424850    92A      0.425453    93A      0.433925  
      94A      0.437212    95A      0.441832    96A      0.452092  
      97A      0.460555    98A      0.461004    99A      0.471483  
     100A      0.475985   101A      0.478719   102A      0.492140  
     103A      0.504862   104A      0.507724   105A      0.514914  
     106A      0.523667   107A      0.524547   108A      0.528668  
     109A      0.535633   110A      0.554577   111A      0.557744  
     112A      0.561414   113A      0.564394   114A      0.570535  
     115A      0.581805   116A      0.587535   117A      0.591506  
     118A      0.593799   119A      0.595911   120A      0.608929  
     121A      0.615039   122A      0.620058   123A      0.636263  
     124A      0.643517   125A      0.644321   126A      0.649255  
     127A      0.651389   128A      0.679314   129A      0.685136  
     130A      0.685215   131A      0.687758   132A      0.689932  
     133A      0.690342   134A      0.694828   135A      0.703829  
     136A      0.719791   137A      0.728291   138A      0.746558  
     139A      0.746687   140A      0.754817   141A      0.766965  
     142A      0.775580   143A      0.781406   144A      0.793531  
     145A      0.799815   146A      0.802710   147A      0.810993  
     148A      0.811878   149A      0.819016   150A      0.824650  
     151A      0.831071   152A      0.847513   153A      0.847960  
     154A      0.849084   155A      0.868505   156A      0.880544  
     157A      0.886410   158A      0.888048   159A      0.894682  
     160A      0.906002   161A      0.929012   162A      0.929272  
     163A      0.939466   164A      0.947590   165A      0.949307  
     166A      0.970679   167A      0.976832   168A      0.986534  
     169A      0.996652   170A      0.998908   171A      1.013015  
     172A      1.032319   173A      1.033370   174A      1.046828  
     175A      1.051194   176A      1.076164   177A      1.089381  
     178A      1.090175   179A      1.100445   180A      1.122199  
     181A      1.124044   182A      1.130561   183A      1.134362  
     184A      1.140163   185A      1.158740   186A      1.168487  
     187A      1.170575   188A      1.173565   189A      1.192105  
     190A      1.193138   191A      1.200370   192A      1.222216  
     193A      1.235416   194A      1.238804   195A      1.250925  
     196A      1.307455   197A      1.309674   198A      1.318158  
     199A      1.326312   200A      1.329508   201A      1.331148  
     202A      1.346705   203A      1.389114   204A      1.414282  
     205A      1.448287   206A      1.451526   207A      1.455357  
     208A      1.479032   209A      1.486137   210A      1.487103  
     211A      1.488075   212A      1.499211   213A      1.502846  
     214A      1.518252   215A      1.572686   216A      1.574192  
     217A      1.587836   218A      1.635982   219A      1.640505  
     220A      1.648219   221A      1.659140   222A      1.676552  
     223A      1.697965   224A      1.716991   225A      1.746597  
     226A      1.755104   227A      1.783762   228A      1.815727  
     229A      1.893323   230A      1.916137   231A      1.964829  
     232A      1.987674   233A      2.031202   234A      2.070128  
     235A      2.091548   236A      2.101028   237A      2.102665  
     238A      2.119345   239A      2.142953   240A      2.156578  
     241A      2.159091   242A      2.163355   243A      2.190488  
     244A      2.193301   245A      2.194761   246A      2.200380  
     247A      2.202410   248A      2.227626   249A      2.234676  
     250A      2.241104   251A      2.249562   252A      2.309917  
     253A      2.312761   254A      2.319448   255A      2.355229  
     256A      2.384706   257A      2.419111   258A      2.430957  
     259A      2.435314   260A      2.438067   261A      2.438977  
     262A      2.472577   263A      2.486626   264A      2.498223  
     265A      2.519379   266A      2.522395   267A      2.524969  
     268A      2.545897   269A      2.568229   270A      2.584766  
     271A      2.592274   272A      2.606266   273A      2.625874  
     274A      2.665224   275A      2.675409   276A      2.686395  
     277A      2.713985   278A      2.716799   279A      2.718591  
     280A      2.726552   281A      2.767835   282A      2.844014  
     283A      2.865761   284A      2.903938   285A      2.939196  
     286A      2.947128   287A      2.955652   288A      2.973242  
     289A      3.001855   290A      3.017872   291A      3.032186  
     292A      3.058232   293A      3.065132   294A      3.094137  
     295A      3.113771   296A      3.220316   297A      3.245631  
     298A      3.255980   299A      3.284880   300A      3.289582  
     301A      3.321863   302A      3.337642   303A      3.340389  
     304A      3.348560   305A      3.351283   306A      3.366140  
     307A      3.412532   308A      3.413367   309A      3.470688  
     310A      3.501888   311A      3.514920   312A      3.521294  
     313A      3.590655   314A      3.604369   315A      3.605576  
     316A      3.627769   317A      3.700416   318A      3.818857  
     319A      3.830620   320A      3.940901   321A      3.969029  
     322A      3.977236   323A      4.011336   324A      4.194690  
     325A      4.242183   326A      4.253485   327A      4.441921  
     328A      4.546762   329A      4.579209   330A      4.867571  
     331A      4.976076   332A      5.057784   333A      5.261644  
     334A      5.316473   335A      5.630131   336A      5.691257  
     337A      5.827080   338A      5.952566   339A      6.283761  
     340A      6.306823   341A      6.453700   342A      6.631134  
     343A     18.125651   344A     18.207913   345A     19.017508  
     346A     19.342933   347A     25.286993   348A     25.374713  

    Final Occupation by Irrep:
              A 
    DOCC [    21 ]

  @DF-RHF Final Energy:  -262.63994485200760

   => Energetics <=

    Nuclear Repulsion Energy =            212.5517311104853491
    One-Electron Energy =                -775.4594096415472677
    Two-Electron Energy =                 300.2677336790543450
    Total Energy =                       -262.6399448520076021

Computation Completed


Properties will be evaluated at   0.000000,   0.000000,   0.000000 [a0]

Properties computed using the SCF density matrix

  Nuclear Dipole Moment: [e a0]
     X:    55.0814      Y:    41.1737      Z:    17.9034

  Electronic Dipole Moment: [e a0]
     X:   -55.0814      Y:   -41.1737      Z:   -17.9034

  Dipole Moment: [e a0]
     X:    -0.0000      Y:     0.0000      Z:    -0.0000     Total:     0.0000

  Dipole Moment: [D]
     X:    -0.0000      Y:     0.0000      Z:    -0.0000     Total:     0.0000


*** tstop() called on atl1-1-01-015-3-r.pace.gatech.edu at Mon Nov 29 16:11:05 2021
Module time:
	user time   =      15.77 seconds =       0.26 minutes
	system time =       0.50 seconds =       0.01 minutes
	total time  =          9 seconds =       0.15 minutes
Total time:
	user time   =      41.30 seconds =       0.69 minutes
	system time =       1.50 seconds =       0.03 minutes
	total time  =         23 seconds =       0.38 minutes

  //>>>>>>>>>>>>>>>>>>>>>>>>>>>>>>>>>>>//
  //            Monomer B HF           //
  //<<<<<<<<<<<<<<<<<<<<<<<<<<<<<<<<<<<//


*** tstart() called on atl1-1-01-015-3-r.pace.gatech.edu
*** at Mon Nov 29 16:11:05 2021

   => Loading Basis Set <=

    Name: AUG-CC-PVDZ
    Role: ORBITAL
    Keyword: BASIS
    atoms 1-2, 11-12  entry N          line   218 file /storage/home/hhive1/csargent30/data/miniconda3/envs/psi4/share/psi4/basis/aug-cc-pvdz.gbs 
    atoms 3-6, 13-16  entry H          line    40 file /storage/home/hhive1/csargent30/data/miniconda3/envs/psi4/share/psi4/basis/aug-cc-pvdz.gbs 
    atoms 7-10, 17-20 entry C          line   182 file /storage/home/hhive1/csargent30/data/miniconda3/envs/psi4/share/psi4/basis/aug-cc-pvdz.gbs 


         ---------------------------------------------------------
                                   SCF
               by Justin Turney, Rob Parrish, Andy Simmonett
                          and Daniel G. A. Smith
                              RHF Reference
                        2 Threads,   6675 MiB Core
         ---------------------------------------------------------

  ==> Geometry <==

    Molecular point group: c1
    Full point group: C1

    Geometry (in Bohr), charge = 0, multiplicity = 1:

       Center              X                  Y                   Z               Mass       
    ------------   -----------------  -----------------  -----------------  -----------------
      Gh(N)          -1.330847580000     0.980326580000     0.426270370000    14.003074004430
      Gh(N)           3.953773330000     0.980326580000     0.426270370000    14.003074004430
      Gh(H)           3.567136740000     4.352185690000    -0.942309730000     1.007825032230
      Gh(H)          -0.944210980000     4.352185690000    -0.942309730000     1.007825032230
      Gh(H)          -0.944210980000    -2.391532530000     1.794850470000     1.007825032230
      Gh(H)           3.567136740000    -2.391532530000     1.794850470000     1.007825032230
      Gh(C)           2.622925760000     2.940979740000    -0.426270370000    12.000000000000
      Gh(C)           0.000000000000     2.940979740000    -0.426270370000    12.000000000000
      Gh(C)           0.000000000000    -0.980326580000     1.278811120000    12.000000000000
      Gh(C)           2.622925760000    -0.980326580000     1.278811120000    12.000000000000
         N          -18.953299590000   -32.185500760000   -13.682802820000    14.003074004430
         N          -13.668678680000   -32.185500760000   -13.682802820000    14.003074004430
         H          -14.055315270000   -28.813641650000   -15.051382920000     1.007825032230
         H          -18.566662990000   -28.813641650000   -15.051382920000     1.007825032230
         H          -18.566662990000   -35.557359870000   -12.314222720000     1.007825032230
         H          -14.055315270000   -35.557359870000   -12.314222720000     1.007825032230
         C          -14.999526250000   -30.224847600000   -14.535343570000    12.000000000000
         C          -17.622452010000   -30.224847600000   -14.535343570000    12.000000000000
         C          -17.622452010000   -34.146153920000   -12.830262080000    12.000000000000
         C          -14.999526250000   -34.146153920000   -12.830262080000    12.000000000000

  Running in c1 symmetry.

  Rotational constants: A =      0.06964  B =      0.00050  C =      0.00050 [cm^-1]
  Rotational constants: A =   2087.85451  B =     15.04687  C =     14.99983 [MHz]
  Nuclear repulsion =  212.551731110485264

  Charge       = 0
  Multiplicity = 1
  Electrons    = 42
  Nalpha       = 21
  Nbeta        = 21

  ==> Algorithm <==

  SCF Algorithm Type is DF.
  DIIS enabled.
  MOM disabled.
  Fractional occupation disabled.
  Guess Type is SAD.
  Energy threshold   = 1.00e-10
  Density threshold  = 1.00e-10
  Integral threshold = 1.00e-12

  ==> Primary Basis <==

  Basis Set: AUG-CC-PVDZ
    Blend: AUG-CC-PVDZ
    Number of shells: 148
    Number of basis functions: 348
    Number of Cartesian functions: 372
    Spherical Harmonics?: true
    Max angular momentum: 2

   => Loading Basis Set <=

    Name: (AUG-CC-PVDZ AUX)
    Role: JKFIT
    Keyword: DF_BASIS_SCF
    atoms 1-2, 11-12  entry N          line   212 file /storage/home/hhive1/csargent30/data/miniconda3/envs/psi4/share/psi4/basis/aug-cc-pvdz-jkfit.gbs 
    atoms 3-6, 13-16  entry H          line    70 file /storage/home/hhive1/csargent30/data/miniconda3/envs/psi4/share/psi4/basis/aug-cc-pvdz-jkfit.gbs 
    atoms 7-10, 17-20 entry C          line   154 file /storage/home/hhive1/csargent30/data/miniconda3/envs/psi4/share/psi4/basis/aug-cc-pvdz-jkfit.gbs 

  ==> Integral Setup <==

  ==> DiskDFJK: Density-Fitted J/K Matrices <==

    J tasked:                  Yes
    K tasked:                  Yes
    wK tasked:                  No
    OpenMP threads:              2
    Integrals threads:           2
    Memory [MiB]:             5006
    Algorithm:                Core
    Integral Cache:           LOAD
    Schwarz Cutoff:          1E-12
    Fitting Condition:       1E-10

   => Auxiliary Basis Set <=

  Basis Set: (AUG-CC-PVDZ AUX)
    Blend: AUG-CC-PVDZ-JKFIT
    Number of shells: 432
    Number of basis functions: 1288
    Number of Cartesian functions: 1492
    Spherical Harmonics?: true
    Max angular momentum: 3

  Minimum eigenvalue in the overlap matrix is 9.4898345743E-06.
  Reciprocal condition number of the overlap matrix is 7.4017598388E-07.
    Using symmetric orthogonalization.

  ==> Pre-Iterations <==

  SCF Guess: Superposition of Atomic Densities via on-the-fly atomic UHF (no occupation information).

   -------------------------
    Irrep   Nso     Nmo    
   -------------------------
     A        348     348 
   -------------------------
    Total     348     348
   -------------------------

  ==> Iterations <==

                           Total Energy        Delta E     RMS |[F,P]|

   @DF-RHF iter SAD:  -262.32523125828425   -2.62325e+02   0.00000e+00 
   @DF-RHF iter   1:  -262.53940798255894   -2.14177e-01   1.11985e-03 DIIS
   @DF-RHF iter   2:  -262.62878837495305   -8.93804e-02   4.10664e-04 DIIS
   @DF-RHF iter   3:  -262.63862291951375   -9.83454e-03   1.28248e-04 DIIS
   @DF-RHF iter   4:  -262.63984767278691   -1.22475e-03   3.77599e-05 DIIS
   @DF-RHF iter   5:  -262.63993727324936   -8.96005e-05   7.55558e-06 DIIS
   @DF-RHF iter   6:  -262.63994382350916   -6.55026e-06   2.45264e-06 DIIS
   @DF-RHF iter   7:  -262.63994477588210   -9.52373e-07   6.40130e-07 DIIS
   @DF-RHF iter   8:  -262.63994484977025   -7.38881e-08   9.91693e-08 DIIS
   @DF-RHF iter   9:  -262.63994485175618   -1.98594e-09   1.88228e-08 DIIS
   @DF-RHF iter  10:  -262.63994485182695   -7.07701e-11   3.19151e-09 DIIS
   @DF-RHF iter  11:  -262.63994485182883   -1.87583e-12   5.22318e-10 DIIS
   @DF-RHF iter  12:  -262.63994485182883    0.00000e+00   9.54395e-11 DIIS
  Energy and wave function converged.


  ==> Post-Iterations <==

    Orbital Energies [Eh]
    ---------------------

    Doubly Occupied:                                                      

       1A    -15.598072     2A    -15.598053     3A    -11.274239  
       4A    -11.274194     5A    -11.272975     6A    -11.272969  
       7A     -1.313347     8A     -1.224176     9A     -1.076803  
      10A     -0.922662    11A     -0.919282    12A     -0.760637  
      13A     -0.738402    14A     -0.706214    15A     -0.647687  
      16A     -0.580711    17A     -0.574369    18A     -0.497113  
      19A     -0.434288    20A     -0.415855    21A     -0.359924  

    Virtual:                                                              

      22A      0.022337    23A      0.034497    24A      0.039416  
      25A      0.040739    26A      0.041082    27A      0.048384  
      28A      0.058591    29A      0.058757    30A      0.067113  
      31A      0.079580    32A      0.084955    33A      0.099419  
      34A      0.100948    35A      0.103899    36A      0.108410  
      37A      0.108754    38A      0.114201    39A      0.114951  
      40A      0.122399    41A      0.123776    42A      0.125322  
      43A      0.125494    44A      0.128661    45A      0.130842  
      46A      0.132889    47A      0.134055    48A      0.152010  
      49A      0.152928    50A      0.158199    51A      0.159243  
      52A      0.161084    53A      0.161326    54A      0.163914  
      55A      0.175179    56A      0.176649    57A      0.186918  
      58A      0.197700    59A      0.203805    60A      0.203908  
      61A      0.206561    62A      0.212538    63A      0.222285  
      64A      0.233511    65A      0.239338    66A      0.250517  
      67A      0.255118    68A      0.267756    69A      0.270677  
      70A      0.278057    71A      0.287812    72A      0.293207  
      73A      0.295749    74A      0.302226    75A      0.314832  
      76A      0.320457    77A      0.320540    78A      0.328059  
      79A      0.331201    80A      0.344017    81A      0.355428  
      82A      0.357908    83A      0.364661    84A      0.380399  
      85A      0.382583    86A      0.385535    87A      0.398891  
      88A      0.401172    89A      0.409895    90A      0.419172  
      91A      0.424850    92A      0.425453    93A      0.433925  
      94A      0.437212    95A      0.441832    96A      0.452092  
      97A      0.460555    98A      0.461004    99A      0.471483  
     100A      0.475985   101A      0.478719   102A      0.492140  
     103A      0.504862   104A      0.507724   105A      0.514914  
     106A      0.523667   107A      0.524547   108A      0.528668  
     109A      0.535633   110A      0.554577   111A      0.557744  
     112A      0.561414   113A      0.564394   114A      0.570535  
     115A      0.581805   116A      0.587535   117A      0.591506  
     118A      0.593799   119A      0.595911   120A      0.608929  
     121A      0.615039   122A      0.620058   123A      0.636263  
     124A      0.643517   125A      0.644321   126A      0.649255  
     127A      0.651389   128A      0.679314   129A      0.685136  
     130A      0.685215   131A      0.687758   132A      0.689932  
     133A      0.690342   134A      0.694828   135A      0.703829  
     136A      0.719791   137A      0.728291   138A      0.746558  
     139A      0.746687   140A      0.754817   141A      0.766965  
     142A      0.775580   143A      0.781406   144A      0.793531  
     145A      0.799815   146A      0.802710   147A      0.810993  
     148A      0.811878   149A      0.819016   150A      0.824650  
     151A      0.831071   152A      0.847513   153A      0.847960  
     154A      0.849084   155A      0.868505   156A      0.880544  
     157A      0.886410   158A      0.888048   159A      0.894682  
     160A      0.906002   161A      0.929012   162A      0.929272  
     163A      0.939466   164A      0.947590   165A      0.949307  
     166A      0.970679   167A      0.976832   168A      0.986534  
     169A      0.996652   170A      0.998908   171A      1.013015  
     172A      1.032319   173A      1.033370   174A      1.046828  
     175A      1.051194   176A      1.076164   177A      1.089381  
     178A      1.090175   179A      1.100445   180A      1.122199  
     181A      1.124044   182A      1.130561   183A      1.134362  
     184A      1.140163   185A      1.158740   186A      1.168487  
     187A      1.170575   188A      1.173565   189A      1.192105  
     190A      1.193138   191A      1.200370   192A      1.222216  
     193A      1.235416   194A      1.238804   195A      1.250925  
     196A      1.307455   197A      1.309674   198A      1.318158  
     199A      1.326312   200A      1.329508   201A      1.331148  
     202A      1.346705   203A      1.389114   204A      1.414282  
     205A      1.448287   206A      1.451526   207A      1.455357  
     208A      1.479032   209A      1.486137   210A      1.487103  
     211A      1.488075   212A      1.499211   213A      1.502846  
     214A      1.518252   215A      1.572686   216A      1.574192  
     217A      1.587836   218A      1.635982   219A      1.640505  
     220A      1.648219   221A      1.659140   222A      1.676552  
     223A      1.697965   224A      1.716991   225A      1.746597  
     226A      1.755104   227A      1.783762   228A      1.815727  
     229A      1.893323   230A      1.916137   231A      1.964829  
     232A      1.987674   233A      2.031202   234A      2.070128  
     235A      2.091548   236A      2.101028   237A      2.102665  
     238A      2.119345   239A      2.142953   240A      2.156578  
     241A      2.159091   242A      2.163355   243A      2.190488  
     244A      2.193301   245A      2.194761   246A      2.200380  
     247A      2.202410   248A      2.227626   249A      2.234676  
     250A      2.241104   251A      2.249562   252A      2.309917  
     253A      2.312761   254A      2.319448   255A      2.355229  
     256A      2.384706   257A      2.419111   258A      2.430957  
     259A      2.435314   260A      2.438067   261A      2.438977  
     262A      2.472577   263A      2.486626   264A      2.498223  
     265A      2.519379   266A      2.522395   267A      2.524969  
     268A      2.545897   269A      2.568229   270A      2.584766  
     271A      2.592274   272A      2.606266   273A      2.625874  
     274A      2.665224   275A      2.675409   276A      2.686395  
     277A      2.713985   278A      2.716799   279A      2.718591  
     280A      2.726552   281A      2.767835   282A      2.844014  
     283A      2.865761   284A      2.903938   285A      2.939196  
     286A      2.947128   287A      2.955652   288A      2.973242  
     289A      3.001855   290A      3.017872   291A      3.032186  
     292A      3.058232   293A      3.065132   294A      3.094137  
     295A      3.113771   296A      3.220316   297A      3.245631  
     298A      3.255980   299A      3.284880   300A      3.289582  
     301A      3.321863   302A      3.337642   303A      3.340389  
     304A      3.348560   305A      3.351283   306A      3.366140  
     307A      3.412532   308A      3.413367   309A      3.470688  
     310A      3.501888   311A      3.514920   312A      3.521294  
     313A      3.590655   314A      3.604369   315A      3.605576  
     316A      3.627769   317A      3.700416   318A      3.818857  
     319A      3.830620   320A      3.940901   321A      3.969029  
     322A      3.977236   323A      4.011336   324A      4.194690  
     325A      4.242183   326A      4.253485   327A      4.441921  
     328A      4.546762   329A      4.579209   330A      4.867571  
     331A      4.976076   332A      5.057784   333A      5.261644  
     334A      5.316473   335A      5.630131   336A      5.691257  
     337A      5.827080   338A      5.952566   339A      6.283761  
     340A      6.306823   341A      6.453700   342A      6.631134  
     343A     18.125651   344A     18.207913   345A     19.017508  
     346A     19.342933   347A     25.286993   348A     25.374713  

    Final Occupation by Irrep:
              A 
    DOCC [    21 ]

  @DF-RHF Final Energy:  -262.63994485182883

   => Energetics <=

    Nuclear Repulsion Energy =            212.5517311104852638
    One-Electron Energy =                -775.4594096417716855
    Two-Electron Energy =                 300.2677336794575353
    Total Energy =                       -262.6399448518288295

Computation Completed


Properties will be evaluated at   0.000000,   0.000000,   0.000000 [a0]

Properties computed using the SCF density matrix

  Nuclear Dipole Moment: [e a0]
     X:  -685.0615      Y: -1351.7910      Z:  -574.6777

  Electronic Dipole Moment: [e a0]
     X:   685.0615      Y:  1351.7910      Z:   574.6777

  Dipole Moment: [e a0]
     X:     0.0000      Y:    -0.0000      Z:     0.0000     Total:     0.0000

  Dipole Moment: [D]
     X:     0.0000      Y:    -0.0000      Z:     0.0000     Total:     0.0000


*** tstop() called on atl1-1-01-015-3-r.pace.gatech.edu at Mon Nov 29 16:11:14 2021
Module time:
	user time   =      15.82 seconds =       0.26 minutes
	system time =       0.50 seconds =       0.01 minutes
	total time  =          9 seconds =       0.15 minutes
Total time:
	user time   =      57.13 seconds =       0.95 minutes
	system time =       2.00 seconds =       0.03 minutes
	total time  =         32 seconds =       0.53 minutes
  Constructing Basis Sets for SAPT...

   => Loading Basis Set <=

    Name: (AUG-CC-PVDZ AUX)
    Role: RIFIT
    Keyword: DF_BASIS_SAPT
    atoms 1-2, 11-12  entry N          line   158 file /storage/home/hhive1/csargent30/data/miniconda3/envs/psi4/share/psi4/basis/aug-cc-pvdz-ri.gbs 
    atoms 3-6, 13-16  entry H          line    30 file /storage/home/hhive1/csargent30/data/miniconda3/envs/psi4/share/psi4/basis/aug-cc-pvdz-ri.gbs 
    atoms 7-10, 17-20 entry C          line   112 file /storage/home/hhive1/csargent30/data/miniconda3/envs/psi4/share/psi4/basis/aug-cc-pvdz-ri.gbs 


  //>>>>>>>>>>>>>>>>>>>>>>>>>>>>>>>>>>>//
  //               SAPT0               //
  //<<<<<<<<<<<<<<<<<<<<<<<<<<<<<<<<<<<//


*** tstart() called on atl1-1-01-015-3-r.pace.gatech.edu
*** at Mon Nov 29 16:11:14 2021

        SAPT0  
    Ed Hohenstein
     6 June 2009

      Orbital Information
  --------------------------
    NSO        =       348
    NMO        =       348
    NRI        =      1048
    NOCC A     =        21
    NOCC B     =        21
    FOCC A     =         6
    FOCC B     =         6
    NVIR A     =       327
    NVIR B     =       327

    Elst10,r            =    -0.000001806384 [Eh]
    Exch10              =     0.000000000000 [Eh]
    Exch10 (S^2)        =     0.000000000000 [Eh]

    Iter     Energy [mEh]          dE [mEh]         Residual      Time [s]
       1      -0.00000086       0.000000858       0.010771779             1
       2      -0.00000076      -0.000000096       0.002436619             1
       3      -0.00000083       0.000000069       0.001058888             1
       4      -0.00000085       0.000000016       0.000344954             2
       5      -0.00000084      -0.000000002       0.000214176             2
       6      -0.00000084      -0.000000002       0.000077039             3
       7      -0.00000084       0.000000000       0.000029078             3
       8      -0.00000084       0.000000000       0.000008540             3
       9      -0.00000084      -0.000000000       0.000002764             4
      10      -0.00000084      -0.000000000       0.000000831             4

    CHF Iterations converged


    Iter     Energy [mEh]          dE [mEh]         Residual      Time [s]
       1      -0.00000086       0.000000858       0.010771779             0
       2      -0.00000076      -0.000000096       0.002436619             1
       3      -0.00000083       0.000000069       0.001058888             1
       4      -0.00000085       0.000000016       0.000344954             2
       5      -0.00000084      -0.000000002       0.000214176             2
       6      -0.00000084      -0.000000002       0.000077039             2
       7      -0.00000084       0.000000000       0.000029078             3
       8      -0.00000084       0.000000000       0.000008540             3
       9      -0.00000084      -0.000000000       0.000002764             3
      10      -0.00000084      -0.000000000       0.000000831             4

    CHF Iterations converged

    Ind20,r (A<-B)      =    -0.000000000843 [Eh]
    Ind20,r (B<-A)      =    -0.000000000843 [Eh]
    Ind20,r             =    -0.000000001686 [Eh]
    Exch-Ind20,r (A<-B) =     0.000000000000 [Eh]
    Exch-Ind20,r (B<-A) =     0.000000000000 [Eh]
    Exch-Ind20,r        =     0.000000000000 [Eh]
    Disp20              =    -0.000000390347 [Eh]
    Disp20 (SS)         =    -0.000000195173 [Eh]
    Disp20 (OS)         =    -0.000000195173 [Eh]
    Exch-Disp20         =     0.000000000000 [Eh]
    Exch-Disp20 (SS)    =     0.000000000000 [Eh]
    Exch-Disp20 (OS)    =     0.000000000000 [Eh]

    SAPT Results 
  --------------------------------------------------------------------------------------------------------
    Electrostatics                 -0.00180638 [mEh]      -0.00113352 [kcal/mol]      -0.00474266 [kJ/mol]
      Elst10,r                     -0.00180638 [mEh]      -0.00113352 [kcal/mol]      -0.00474266 [kJ/mol]

    Exchange                        0.00000000 [mEh]       0.00000000 [kcal/mol]       0.00000000 [kJ/mol]
      Exch10                        0.00000000 [mEh]       0.00000000 [kcal/mol]       0.00000000 [kJ/mol]
      Exch10(S^2)                   0.00000000 [mEh]       0.00000000 [kcal/mol]       0.00000000 [kJ/mol]

    Induction                       0.00000584 [mEh]       0.00000366 [kcal/mol]       0.00001533 [kJ/mol]
      Ind20,r                      -0.00000169 [mEh]      -0.00000106 [kcal/mol]      -0.00000443 [kJ/mol]
      Exch-Ind20,r                  0.00000000 [mEh]       0.00000000 [kcal/mol]       0.00000000 [kJ/mol]
      delta HF,r (2)                0.00000752 [mEh]       0.00000472 [kcal/mol]       0.00001975 [kJ/mol]

    Dispersion                     -0.00039035 [mEh]      -0.00024495 [kcal/mol]      -0.00102485 [kJ/mol]
      Disp20                       -0.00039035 [mEh]      -0.00024495 [kcal/mol]      -0.00102485 [kJ/mol]
      Exch-Disp20                   0.00000000 [mEh]       0.00000000 [kcal/mol]       0.00000000 [kJ/mol]
      Disp20 (SS)                  -0.00019517 [mEh]      -0.00012247 [kcal/mol]      -0.00051243 [kJ/mol]
      Disp20 (OS)                  -0.00019517 [mEh]      -0.00012247 [kcal/mol]      -0.00051243 [kJ/mol]
      Exch-Disp20 (SS)              0.00000000 [mEh]       0.00000000 [kcal/mol]       0.00000000 [kJ/mol]
      Exch-Disp20 (OS)              0.00000000 [mEh]       0.00000000 [kcal/mol]       0.00000000 [kJ/mol]

  Total HF                         -0.00180055 [mEh]      -0.00112986 [kcal/mol]      -0.00472733 [kJ/mol]
  Total SAPT0                      -0.00219089 [mEh]      -0.00137481 [kcal/mol]      -0.00575219 [kJ/mol]

  Special recipe for scaled SAPT0 (see Manual):
    Electrostatics sSAPT0          -0.00180638 [mEh]      -0.00113352 [kcal/mol]      -0.00474266 [kJ/mol]
    Exchange sSAPT0                 0.00000000 [mEh]       0.00000000 [kcal/mol]       0.00000000 [kJ/mol]
    Induction sSAPT0                0.00000584 [mEh]       0.00000366 [kcal/mol]       0.00001533 [kJ/mol]
    Dispersion sSAPT0              -0.00039035 [mEh]      -0.00024495 [kcal/mol]      -0.00102485 [kJ/mol]
  Total sSAPT0                     -0.00219089 [mEh]      -0.00137481 [kcal/mol]      -0.00575219 [kJ/mol]
  --------------------------------------------------------------------------------------------------------

*** tstop() called on atl1-1-01-015-3-r.pace.gatech.edu at Mon Nov 29 16:11:40 2021
Module time:
	user time   =      38.45 seconds =       0.64 minutes
	system time =       8.76 seconds =       0.15 minutes
	total time  =         26 seconds =       0.43 minutes
Total time:
	user time   =      95.82 seconds =       1.60 minutes
	system time =      10.77 seconds =       0.18 minutes
	total time  =         58 seconds =       0.97 minutes


Warning! sapt0 does not have an associated derived wavefunction.The returned wavefunction is the dimer SCF wavefunction.


    Psi4 stopped on: Monday, 29 November 2021 04:11PM
    Psi4 wall time for execution: 0:00:58.32

*** Psi4 exiting successfully. Buy a developer a beer!
