
    -----------------------------------------------------------------------
          Psi4: An Open-Source Ab Initio Electronic Structure Package
                               Psi4 1.4.1 release

                         Git: Rev {HEAD} cd00f19 


    D. G. A. Smith, L. A. Burns, A. C. Simmonett, R. M. Parrish,
    M. C. Schieber, R. Galvelis, P. Kraus, H. Kruse, R. Di Remigio,
    A. Alenaizan, A. M. James, S. Lehtola, J. P. Misiewicz, M. Scheurer,
    R. A. Shaw, J. B. Schriber, Y. Xie, Z. L. Glick, D. A. Sirianni,
    J. S. O'Brien, J. M. Waldrop, A. Kumar, E. G. Hohenstein,
    B. P. Pritchard, B. R. Brooks, H. F. Schaefer III, A. Yu. Sokolov,
    K. Patkowski, A. E. DePrince III, U. Bozkaya, R. A. King,
    F. A. Evangelista, J. M. Turney, T. D. Crawford, C. D. Sherrill,
    J. Chem. Phys. 152(18) 184108 (2020). https://doi.org/10.1063/5.0006002

                            Additional Code Authors
    E. T. Seidl, C. L. Janssen, E. F. Valeev, M. L. Leininger,
    J. F. Gonthier, R. M. Richard, H. R. McAlexander, M. Saitow, X. Wang,
    P. Verma, and M. H. Lechner

             Previous Authors, Complete List of Code Contributors,
                       and Citations for Specific Modules
    https://github.com/psi4/psi4/blob/master/codemeta.json
    https://github.com/psi4/psi4/graphs/contributors
    http://psicode.org/psi4manual/master/introduction.html#citing-psifour

    -----------------------------------------------------------------------


    Psi4 started on: Monday, 29 November 2021 04:10PM

    Process ID: 73795
    Host:       atl1-1-01-015-12-r.pace.gatech.edu
    PSIDATADIR: /storage/home/hhive1/csargent30/data/miniconda3/envs/psi4/share/psi4
    Memory:     500.0 MiB
    Threads:    2
    
  ==> Input File <==

--------------------------------------------------------------------------
# PSI4 file produced by CrystaLattE

# Generated from:               pyrazine.xyz
# Psithon input for N-mer:      2mer-0+49
# Number of atoms per monomer:  [10, 10]
# Number of replicas:           4
# COM priority:                 9.434194982688e-05
# Minimum COM separations:      11.624 
# Separation priority:          2.063542765505e-04
# Minimum monomer separations:  8.955 
# Cutoff priority:              1.219414341237e-05
# Nuclear repulsion energy:     505.55680574002326

memory 7 GB

molecule Dimer_0_49 {
  N           -1.33084758       0.98032658       0.42627037 
  N            3.95377333       0.98032658       0.42627037 
  H            3.56713674       4.35218569      -0.94230973 
  H           -0.94421098       4.35218569      -0.94230973 
  H           -0.94421098      -2.39153253       1.79485047 
  H            3.56713674      -2.39153253       1.79485047 
  C            2.62292576       2.94097974      -0.42627037 
  C            0.00000000       2.94097974      -0.42627037 
  C            0.00000000      -0.98032658       1.27881112 
  C            2.62292576      -0.98032658       1.27881112 
--
  N          -18.95329959     -10.07494920      -6.62826622 
  N          -13.66867868     -10.07494920      -6.62826622 
  H          -14.05531527      -6.70309009      -7.99684633 
  H          -18.56666299      -6.70309009      -7.99684633 
  H          -18.56666299     -13.44680831      -5.25968612 
  H          -14.05531527     -13.44680831      -5.25968612 
  C          -14.99952625      -8.11429604      -7.48080697 
  C          -17.62245201      -8.11429604      -7.48080697 
  C          -17.62245201     -12.03560236      -5.77572548 
  C          -14.99952625     -12.03560236      -5.77572548 
units = au
no_com
no_reorient
}

set {
  e_convergence 10
  d_convergence 10
  scf_type df
  mp2_type df
  cc_type df
  freeze_core true
}

energy('sapt0/aug-cc-pvdz')

--------------------------------------------------------------------------

  Memory set to   6.519 GiB by Python driver.

Scratch directory: /tmp/

Scratch directory: /tmp/

  //>>>>>>>>>>>>>>>>>>>>>>>>>>>>>>>>>>>//
  //              Dimer HF             //
  //<<<<<<<<<<<<<<<<<<<<<<<<<<<<<<<<<<<//


*** tstart() called on atl1-1-01-015-12-r.pace.gatech.edu
*** at Mon Nov 29 16:10:38 2021

   => Loading Basis Set <=

    Name: AUG-CC-PVDZ
    Role: ORBITAL
    Keyword: BASIS
    atoms 1-2, 11-12  entry N          line   218 file /storage/home/hhive1/csargent30/data/miniconda3/envs/psi4/share/psi4/basis/aug-cc-pvdz.gbs 
    atoms 3-6, 13-16  entry H          line    40 file /storage/home/hhive1/csargent30/data/miniconda3/envs/psi4/share/psi4/basis/aug-cc-pvdz.gbs 
    atoms 7-10, 17-20 entry C          line   182 file /storage/home/hhive1/csargent30/data/miniconda3/envs/psi4/share/psi4/basis/aug-cc-pvdz.gbs 


         ---------------------------------------------------------
                                   SCF
               by Justin Turney, Rob Parrish, Andy Simmonett
                          and Daniel G. A. Smith
                              RHF Reference
                        2 Threads,   6675 MiB Core
         ---------------------------------------------------------

  ==> Geometry <==

    Molecular point group: c1
    Full point group: C1

    Geometry (in Bohr), charge = 0, multiplicity = 1:

       Center              X                  Y                   Z               Mass       
    ------------   -----------------  -----------------  -----------------  -----------------
         N           -1.330847580000     0.980326580000     0.426270370000    14.003074004430
         N            3.953773330000     0.980326580000     0.426270370000    14.003074004430
         H            3.567136740000     4.352185690000    -0.942309730000     1.007825032230
         H           -0.944210980000     4.352185690000    -0.942309730000     1.007825032230
         H           -0.944210980000    -2.391532530000     1.794850470000     1.007825032230
         H            3.567136740000    -2.391532530000     1.794850470000     1.007825032230
         C            2.622925760000     2.940979740000    -0.426270370000    12.000000000000
         C            0.000000000000     2.940979740000    -0.426270370000    12.000000000000
         C            0.000000000000    -0.980326580000     1.278811120000    12.000000000000
         C            2.622925760000    -0.980326580000     1.278811120000    12.000000000000
         N          -18.953299590000   -10.074949200000    -6.628266220000    14.003074004430
         N          -13.668678680000   -10.074949200000    -6.628266220000    14.003074004430
         H          -14.055315270000    -6.703090090000    -7.996846330000     1.007825032230
         H          -18.566662990000    -6.703090090000    -7.996846330000     1.007825032230
         H          -18.566662990000   -13.446808310000    -5.259686120000     1.007825032230
         H          -14.055315270000   -13.446808310000    -5.259686120000     1.007825032230
         C          -14.999526250000    -8.114296040000    -7.480806970000    12.000000000000
         C          -17.622452010000    -8.114296040000    -7.480806970000    12.000000000000
         C          -17.622452010000   -12.035602360000    -5.775725480000    12.000000000000
         C          -14.999526250000   -12.035602360000    -5.775725480000    12.000000000000

  Running in c1 symmetry.

  Rotational constants: A =      0.08611  B =      0.00178  C =      0.00176 [cm^-1]
  Rotational constants: A =   2581.58191  B =     53.47299  C =     52.82747 [MHz]
  Nuclear repulsion =  505.556805721748503

  Charge       = 0
  Multiplicity = 1
  Electrons    = 84
  Nalpha       = 42
  Nbeta        = 42

  ==> Algorithm <==

  SCF Algorithm Type is DF.
  DIIS enabled.
  MOM disabled.
  Fractional occupation disabled.
  Guess Type is SAD.
  Energy threshold   = 1.00e-10
  Density threshold  = 1.00e-10
  Integral threshold = 1.00e-12

  ==> Primary Basis <==

  Basis Set: AUG-CC-PVDZ
    Blend: AUG-CC-PVDZ
    Number of shells: 148
    Number of basis functions: 348
    Number of Cartesian functions: 372
    Spherical Harmonics?: true
    Max angular momentum: 2

   => Loading Basis Set <=

    Name: (AUG-CC-PVDZ AUX)
    Role: JKFIT
    Keyword: DF_BASIS_SCF
    atoms 1-2, 11-12  entry N          line   212 file /storage/home/hhive1/csargent30/data/miniconda3/envs/psi4/share/psi4/basis/aug-cc-pvdz-jkfit.gbs 
    atoms 3-6, 13-16  entry H          line    70 file /storage/home/hhive1/csargent30/data/miniconda3/envs/psi4/share/psi4/basis/aug-cc-pvdz-jkfit.gbs 
    atoms 7-10, 17-20 entry C          line   154 file /storage/home/hhive1/csargent30/data/miniconda3/envs/psi4/share/psi4/basis/aug-cc-pvdz-jkfit.gbs 

  ==> Integral Setup <==

  ==> DiskDFJK: Density-Fitted J/K Matrices <==

    J tasked:                  Yes
    K tasked:                  Yes
    wK tasked:                  No
    OpenMP threads:              2
    Integrals threads:           2
    Memory [MiB]:             5006
    Algorithm:                Core
    Integral Cache:           SAVE
    Schwarz Cutoff:          1E-12
    Fitting Condition:       1E-10

   => Auxiliary Basis Set <=

  Basis Set: (AUG-CC-PVDZ AUX)
    Blend: AUG-CC-PVDZ-JKFIT
    Number of shells: 432
    Number of basis functions: 1288
    Number of Cartesian functions: 1492
    Spherical Harmonics?: true
    Max angular momentum: 3

  Minimum eigenvalue in the overlap matrix is 9.3873595359E-06.
  Reciprocal condition number of the overlap matrix is 7.3212700521E-07.
    Using symmetric orthogonalization.

  ==> Pre-Iterations <==

  SCF Guess: Superposition of Atomic Densities via on-the-fly atomic UHF (no occupation information).

   -------------------------
    Irrep   Nso     Nmo    
   -------------------------
     A        348     348 
   -------------------------
    Total     348     348
   -------------------------

  ==> Iterations <==

                           Total Energy        Delta E     RMS |[F,P]|

   @DF-RHF iter SAD:  -524.65046265343847   -5.24650e+02   0.00000e+00 
   @DF-RHF iter   1:  -525.07883160824520   -4.28369e-01   1.58372e-03 DIIS
   @DF-RHF iter   2:  -525.25759402747076   -1.78762e-01   5.80769e-04 DIIS
   @DF-RHF iter   3:  -525.27726327400546   -1.96692e-02   1.81371e-04 DIIS
   @DF-RHF iter   4:  -525.27971279681992   -2.44952e-03   5.34048e-05 DIIS
   @DF-RHF iter   5:  -525.27989202353444   -1.79227e-04   1.06838e-05 DIIS
   @DF-RHF iter   6:  -525.27990512247368   -1.30989e-05   3.46825e-06 DIIS
   @DF-RHF iter   7:  -525.27990702671104   -1.90424e-06   9.06037e-07 DIIS
   @DF-RHF iter   8:  -525.27990717429907   -1.47588e-07   1.53333e-07 DIIS
   @DF-RHF iter   9:  -525.27990717824036   -3.94130e-09   7.13369e-08 DIIS
   @DF-RHF iter  10:  -525.27990717865953   -4.19163e-10   1.81360e-08 DIIS
   @DF-RHF iter  11:  -525.27990717870500   -4.54747e-11   3.86561e-09 DIIS
   @DF-RHF iter  12:  -525.27990717870728   -2.27374e-12   1.95776e-09 DIIS
   @DF-RHF iter  13:  -525.27990717870784   -5.68434e-13   4.08127e-10 DIIS
   @DF-RHF iter  14:  -525.27990717870773    1.13687e-13   1.60584e-10 DIIS
   @DF-RHF iter  15:  -525.27990717870807   -3.41061e-13   8.30107e-11 DIIS
  Energy and wave function converged.


  ==> Post-Iterations <==

    Orbital Energies [Eh]
    ---------------------

    Doubly Occupied:                                                      

       1A    -15.597704     2A    -15.597704     3A    -15.597674  
       4A    -15.597674     5A    -11.273876     6A    -11.273876  
       7A    -11.273801     8A    -11.273801     9A    -11.272625  
      10A    -11.272625    11A    -11.272563    12A    -11.272563  
      13A     -1.312971    14A     -1.312971    15A     -1.223801  
      16A     -1.223801    17A     -1.076426    18A     -1.076426  
      19A     -0.922287    20A     -0.922286    21A     -0.918906  
      22A     -0.918905    23A     -0.760262    24A     -0.760261  
      25A     -0.738026    26A     -0.738024    27A     -0.705838  
      28A     -0.705838    29A     -0.647310    30A     -0.647310  
      31A     -0.580334    32A     -0.580334    33A     -0.573993  
      34A     -0.573993    35A     -0.496742    36A     -0.496742  
      37A     -0.433914    38A     -0.433914    39A     -0.415484  
      40A     -0.415483    41A     -0.359545    42A     -0.359545  

    Virtual:                                                              

      43A      0.031970    44A      0.035946    45A      0.040472  
      46A      0.041232    47A      0.045462    48A      0.053141  
      49A      0.059004    50A      0.060480    51A      0.067534  
      52A      0.067716    53A      0.099317    54A      0.099502  
      55A      0.101226    56A      0.101803    57A      0.112767  
      58A      0.114451    59A      0.114626    60A      0.116728  
      61A      0.121798    62A      0.123548    63A      0.125591  
      64A      0.126220    65A      0.131029    66A      0.131453  
      67A      0.133229    68A      0.134078    69A      0.157075  
      70A      0.158606    71A      0.159294    72A      0.161393  
      73A      0.161831    74A      0.162107    75A      0.164428  
      76A      0.174130    77A      0.178876    78A      0.180377  
      79A      0.187549    80A      0.188403    81A      0.204291  
      82A      0.204324    83A      0.212834    84A      0.213813  
      85A      0.250599    86A      0.251371    87A      0.267775  
      88A      0.268386    89A      0.278134    90A      0.278982  
      91A      0.287810    92A      0.288196    93A      0.293151  
      94A      0.294901    95A      0.295320    96A      0.299265  
      97A      0.315915    98A      0.315988    99A      0.320661  
     100A      0.322967   101A      0.354462   102A      0.357906  
     103A      0.358299   104A      0.358384   105A      0.364940  
     106A      0.365139   107A      0.383656   108A      0.384499  
     109A      0.398951   110A      0.400559   111A      0.410149  
     112A      0.410592   113A      0.425657   114A      0.428459  
     115A      0.434291   116A      0.434492   117A      0.437469  
     118A      0.438783   119A      0.452914   120A      0.453179  
     121A      0.471407   122A      0.472704   123A      0.492222  
     124A      0.493992   125A      0.504428   126A      0.507079  
     127A      0.515151   128A      0.515556   129A      0.524692  
     130A      0.525253   131A      0.527578   132A      0.533939  
     133A      0.554969   134A      0.555098   135A      0.571093  
     136A      0.571253   137A      0.587798   138A      0.588264  
     139A      0.591896   140A      0.592777   141A      0.594291  
     142A      0.594630   143A      0.609124   144A      0.609567  
     145A      0.643680   146A      0.643901   147A      0.645042  
     148A      0.645251   149A      0.685488   150A      0.685563  
     151A      0.688045   152A      0.688307   153A      0.690105  
     154A      0.690332   155A      0.690516   156A      0.691624  
     157A      0.694996   158A      0.695806   159A      0.703643  
     160A      0.705217   161A      0.747076   162A      0.747374  
     163A      0.755194   164A      0.755204   165A      0.767610  
     166A      0.768344   167A      0.781273   168A      0.782499  
     169A      0.799825   170A      0.801023   171A      0.803066  
     172A      0.803832   173A      0.819211   174A      0.819903  
     175A      0.831601   176A      0.832020   177A      0.848151  
     178A      0.849137   179A      0.880854   180A      0.881098  
     181A      0.886607   182A      0.887236   183A      0.894981  
     184A      0.895274   185A      0.929706   186A      0.929761  
     187A      0.940345   188A      0.940476   189A      0.949750  
     190A      0.949787   191A      0.996705   192A      0.997990  
     193A      0.998970   194A      1.000589   195A      1.013380  
     196A      1.013398   197A      1.033479   198A      1.034844  
     199A      1.051633   200A      1.051682   201A      1.089734  
     202A      1.089781   203A      1.100793   204A      1.101126  
     205A      1.122604   206A      1.122974   207A      1.124509  
     208A      1.124696   209A      1.134428   210A      1.135721  
     211A      1.159045   212A      1.159455   213A      1.173789  
     214A      1.174368   215A      1.235738   216A      1.235950  
     217A      1.238965   218A      1.239494   219A      1.309743  
     220A      1.310861   221A      1.331260   222A      1.331904  
     223A      1.414633   224A      1.414725   225A      1.451543  
     226A      1.452369   227A      1.486206   228A      1.486867  
     229A      1.488299   230A      1.489567   231A      1.499530  
     232A      1.500243   233A      1.502798   234A      1.504209  
     235A      1.518480   236A      1.519512   237A      1.572962  
     238A      1.573256   239A      1.574328   240A      1.575104  
     241A      1.587899   242A      1.589010   243A      1.636259  
     244A      1.636542   245A      1.640630   246A      1.641341  
     247A      1.649046   248A      1.649911   249A      1.676537  
     250A      1.677811   251A      1.717359   252A      1.717720  
     253A      1.746975   254A      1.747053   255A      1.755471  
     256A      1.755510   257A      1.783296   258A      1.786150  
     259A      1.816178   260A      1.816191   261A      1.893695  
     262A      1.893716   263A      1.916519   264A      1.916521  
     265A      1.965350   266A      1.965438   267A      1.988002  
     268A      1.988162   269A      2.031498   270A      2.031748  
     271A      2.091898   272A      2.091977   273A      2.101415  
     274A      2.101999   275A      2.143437   276A      2.143796  
     277A      2.163907   278A      2.163953   279A      2.190788  
     280A      2.191045   281A      2.193466   282A      2.194473  
     283A      2.200720   284A      2.201023   285A      2.202773  
     286A      2.202888   287A      2.228062   288A      2.228155  
     289A      2.312746   290A      2.314252   291A      2.355271  
     292A      2.356273   293A      2.431351   294A      2.431409  
     295A      2.439378   296A      2.439636   297A      2.519652  
     298A      2.519995   299A      2.522715   300A      2.522913  
     301A      2.585520   302A      2.585653   303A      2.606596  
     304A      2.606697   305A      2.665470   306A      2.665784  
     307A      2.675743   308A      2.675930   309A      2.686692  
     310A      2.687014   311A      2.714423   312A      2.714675  
     313A      2.718917   314A      2.719516   315A      2.844384  
     316A      2.844401   317A      2.866139   318A      2.866148  
     319A      2.939582   320A      2.939721   321A      3.002218  
     322A      3.002277   323A      3.018086   324A      3.018426  
     325A      3.032586   326A      3.032641   327A      3.094424  
     328A      3.094632   329A      3.220789   330A      3.221797  
     331A      3.256273   332A      3.256451   333A      3.285201  
     334A      3.285493   335A      3.366548   336A      3.366550  
     337A      3.413742   338A      3.413754   339A      3.515311  
     340A      3.515382   341A      3.590865   342A      3.591364  
     343A      3.628251   344A      3.628263   345A      3.977589  
     346A      3.977973   347A      4.253846   348A      4.253888  

    Final Occupation by Irrep:
              A 
    DOCC [    42 ]

  @DF-RHF Final Energy:  -525.27990717870807

   => Energetics <=

    Nuclear Repulsion Energy =            505.5568057217485034
    One-Electron Energy =               -1711.8571127172240267
    Two-Electron Energy =                 681.0203998167673944
    Total Energy =                       -525.2799071787080720

Computation Completed


Properties will be evaluated at   0.000000,   0.000000,   0.000000 [a0]

Properties computed using the SCF density matrix

  Nuclear Dipole Moment: [e a0]
     X:  -629.9801      Y:  -381.9742      Z:  -260.4838

  Electronic Dipole Moment: [e a0]
     X:   629.9801      Y:   381.9742      Z:   260.4838

  Dipole Moment: [e a0]
     X:     0.0000      Y:    -0.0000      Z:    -0.0000     Total:     0.0000

  Dipole Moment: [D]
     X:     0.0000      Y:    -0.0000      Z:    -0.0000     Total:     0.0000


*** tstop() called on atl1-1-01-015-12-r.pace.gatech.edu at Mon Nov 29 16:10:53 2021
Module time:
	user time   =      27.08 seconds =       0.45 minutes
	system time =       1.10 seconds =       0.02 minutes
	total time  =         15 seconds =       0.25 minutes
Total time:
	user time   =      27.08 seconds =       0.45 minutes
	system time =       1.10 seconds =       0.02 minutes
	total time  =         15 seconds =       0.25 minutes

  //>>>>>>>>>>>>>>>>>>>>>>>>>>>>>>>>>>>//
  //            Monomer A HF           //
  //<<<<<<<<<<<<<<<<<<<<<<<<<<<<<<<<<<<//


*** tstart() called on atl1-1-01-015-12-r.pace.gatech.edu
*** at Mon Nov 29 16:10:53 2021

   => Loading Basis Set <=

    Name: AUG-CC-PVDZ
    Role: ORBITAL
    Keyword: BASIS
    atoms 1-2, 11-12  entry N          line   218 file /storage/home/hhive1/csargent30/data/miniconda3/envs/psi4/share/psi4/basis/aug-cc-pvdz.gbs 
    atoms 3-6, 13-16  entry H          line    40 file /storage/home/hhive1/csargent30/data/miniconda3/envs/psi4/share/psi4/basis/aug-cc-pvdz.gbs 
    atoms 7-10, 17-20 entry C          line   182 file /storage/home/hhive1/csargent30/data/miniconda3/envs/psi4/share/psi4/basis/aug-cc-pvdz.gbs 


         ---------------------------------------------------------
                                   SCF
               by Justin Turney, Rob Parrish, Andy Simmonett
                          and Daniel G. A. Smith
                              RHF Reference
                        2 Threads,   6675 MiB Core
         ---------------------------------------------------------

  ==> Geometry <==

    Molecular point group: c1
    Full point group: C1

    Geometry (in Bohr), charge = 0, multiplicity = 1:

       Center              X                  Y                   Z               Mass       
    ------------   -----------------  -----------------  -----------------  -----------------
         N           -1.330847580000     0.980326580000     0.426270370000    14.003074004430
         N            3.953773330000     0.980326580000     0.426270370000    14.003074004430
         H            3.567136740000     4.352185690000    -0.942309730000     1.007825032230
         H           -0.944210980000     4.352185690000    -0.942309730000     1.007825032230
         H           -0.944210980000    -2.391532530000     1.794850470000     1.007825032230
         H            3.567136740000    -2.391532530000     1.794850470000     1.007825032230
         C            2.622925760000     2.940979740000    -0.426270370000    12.000000000000
         C            0.000000000000     2.940979740000    -0.426270370000    12.000000000000
         C            0.000000000000    -0.980326580000     1.278811120000    12.000000000000
         C            2.622925760000    -0.980326580000     1.278811120000    12.000000000000
      Gh(N)         -18.953299590000   -10.074949200000    -6.628266220000    14.003074004430
      Gh(N)         -13.668678680000   -10.074949200000    -6.628266220000    14.003074004430
      Gh(H)         -14.055315270000    -6.703090090000    -7.996846330000     1.007825032230
      Gh(H)         -18.566662990000    -6.703090090000    -7.996846330000     1.007825032230
      Gh(H)         -18.566662990000   -13.446808310000    -5.259686120000     1.007825032230
      Gh(H)         -14.055315270000   -13.446808310000    -5.259686120000     1.007825032230
      Gh(C)         -14.999526250000    -8.114296040000    -7.480806970000    12.000000000000
      Gh(C)         -17.622452010000    -8.114296040000    -7.480806970000    12.000000000000
      Gh(C)         -17.622452010000   -12.035602360000    -5.775725480000    12.000000000000
      Gh(C)         -14.999526250000   -12.035602360000    -5.775725480000    12.000000000000

  Running in c1 symmetry.

  Rotational constants: A =      0.08611  B =      0.00178  C =      0.00176 [cm^-1]
  Rotational constants: A =   2581.58191  B =     53.47299  C =     52.82747 [MHz]
  Nuclear repulsion =  212.551731110485349

  Charge       = 0
  Multiplicity = 1
  Electrons    = 42
  Nalpha       = 21
  Nbeta        = 21

  ==> Algorithm <==

  SCF Algorithm Type is DF.
  DIIS enabled.
  MOM disabled.
  Fractional occupation disabled.
  Guess Type is SAD.
  Energy threshold   = 1.00e-10
  Density threshold  = 1.00e-10
  Integral threshold = 1.00e-12

  ==> Primary Basis <==

  Basis Set: AUG-CC-PVDZ
    Blend: AUG-CC-PVDZ
    Number of shells: 148
    Number of basis functions: 348
    Number of Cartesian functions: 372
    Spherical Harmonics?: true
    Max angular momentum: 2

   => Loading Basis Set <=

    Name: (AUG-CC-PVDZ AUX)
    Role: JKFIT
    Keyword: DF_BASIS_SCF
    atoms 1-2, 11-12  entry N          line   212 file /storage/home/hhive1/csargent30/data/miniconda3/envs/psi4/share/psi4/basis/aug-cc-pvdz-jkfit.gbs 
    atoms 3-6, 13-16  entry H          line    70 file /storage/home/hhive1/csargent30/data/miniconda3/envs/psi4/share/psi4/basis/aug-cc-pvdz-jkfit.gbs 
    atoms 7-10, 17-20 entry C          line   154 file /storage/home/hhive1/csargent30/data/miniconda3/envs/psi4/share/psi4/basis/aug-cc-pvdz-jkfit.gbs 

  ==> Integral Setup <==

  ==> DiskDFJK: Density-Fitted J/K Matrices <==

    J tasked:                  Yes
    K tasked:                  Yes
    wK tasked:                  No
    OpenMP threads:              2
    Integrals threads:           2
    Memory [MiB]:             5006
    Algorithm:                Core
    Integral Cache:           LOAD
    Schwarz Cutoff:          1E-12
    Fitting Condition:       1E-10

   => Auxiliary Basis Set <=

  Basis Set: (AUG-CC-PVDZ AUX)
    Blend: AUG-CC-PVDZ-JKFIT
    Number of shells: 432
    Number of basis functions: 1288
    Number of Cartesian functions: 1492
    Spherical Harmonics?: true
    Max angular momentum: 3

  Minimum eigenvalue in the overlap matrix is 9.3873595359E-06.
  Reciprocal condition number of the overlap matrix is 7.3212700521E-07.
    Using symmetric orthogonalization.

  ==> Pre-Iterations <==

  SCF Guess: Superposition of Atomic Densities via on-the-fly atomic UHF (no occupation information).

   -------------------------
    Irrep   Nso     Nmo    
   -------------------------
     A        348     348 
   -------------------------
    Total     348     348
   -------------------------

  ==> Iterations <==

                           Total Energy        Delta E     RMS |[F,P]|

   @DF-RHF iter SAD:  -262.32523127277432   -2.62325e+02   0.00000e+00 
   @DF-RHF iter   1:  -262.53941117715664   -2.14180e-01   1.11986e-03 DIIS
   @DF-RHF iter   2:  -262.62879181869693   -8.93806e-02   4.10665e-04 DIIS
   @DF-RHF iter   3:  -262.63862641079970   -9.83459e-03   1.28247e-04 DIIS
   @DF-RHF iter   4:  -262.63985115808100   -1.22475e-03   3.77600e-05 DIIS
   @DF-RHF iter   5:  -262.63994075862649   -8.96005e-05   7.55565e-06 DIIS
   @DF-RHF iter   6:  -262.63994730896616   -6.55034e-06   2.45266e-06 DIIS
   @DF-RHF iter   7:  -262.63994826135547   -9.52389e-07   6.40134e-07 DIIS
   @DF-RHF iter   8:  -262.63994833524532   -7.38899e-08   9.91702e-08 DIIS
   @DF-RHF iter   9:  -262.63994833723069   -1.98537e-09   1.88238e-08 DIIS
   @DF-RHF iter  10:  -262.63994833730089   -7.02016e-11   3.20129e-09 DIIS
   @DF-RHF iter  11:  -262.63994833730379   -2.89901e-12   6.19097e-10 DIIS
   @DF-RHF iter  12:  -262.63994833730419   -3.97904e-13   3.64133e-10 DIIS
   @DF-RHF iter  13:  -262.63994833730425   -5.68434e-14   7.71145e-11 DIIS
  Energy and wave function converged.


  ==> Post-Iterations <==

    Orbital Energies [Eh]
    ---------------------

    Doubly Occupied:                                                      

       1A    -15.598072     2A    -15.598053     3A    -11.274238  
       4A    -11.274193     5A    -11.272974     6A    -11.272968  
       7A     -1.313347     8A     -1.224176     9A     -1.076803  
      10A     -0.922662    11A     -0.919282    12A     -0.760637  
      13A     -0.738402    14A     -0.706214    15A     -0.647687  
      16A     -0.580711    17A     -0.574369    18A     -0.497113  
      19A     -0.434288    20A     -0.415855    21A     -0.359924  

    Virtual:                                                              

      22A      0.022088    23A      0.033238    24A      0.038924  
      25A      0.039795    26A      0.042176    27A      0.050635  
      28A      0.058042    29A      0.060398    30A      0.067183  
      31A      0.080226    32A      0.085308    33A      0.099233  
      34A      0.099784    35A      0.104449    36A      0.107726  
      37A      0.108894    38A      0.114314    39A      0.116892  
      40A      0.121758    41A      0.123117    42A      0.125382  
      43A      0.128129    44A      0.129242    45A      0.131444  
      46A      0.132729    47A      0.135689    48A      0.151844  
      49A      0.153457    50A      0.158049    51A      0.159358  
      52A      0.162070    53A      0.162989    54A      0.169847  
      55A      0.177606    56A      0.180027    57A      0.187562  
      58A      0.198695    59A      0.203915    60A      0.204443  
      61A      0.207032    62A      0.212742    63A      0.223134  
      64A      0.234477    65A      0.240339    66A      0.250480  
      67A      0.256374    68A      0.267601    69A      0.271767  
      70A      0.278244    71A      0.288022    72A      0.293966  
      73A      0.296366    74A      0.302710    75A      0.314892  
      76A      0.319805    77A      0.322831    78A      0.328952  
      79A      0.333162    80A      0.345216    81A      0.355908  
      82A      0.357966    83A      0.364667    84A      0.382070  
      85A      0.383681    86A      0.386906    87A      0.399396  
      88A      0.401568    89A      0.409962    90A      0.420341  
      91A      0.425350    92A      0.426638    93A      0.434009  
      94A      0.437370    95A      0.443615    96A      0.452912  
      97A      0.461164    98A      0.461781    99A      0.471154  
     100A      0.477353   101A      0.479371   102A      0.492848  
     103A      0.505317   104A      0.508457   105A      0.514962  
     106A      0.524184   107A      0.524614   108A      0.530371  
     109A      0.536252   110A      0.554611   111A      0.558586  
     112A      0.561851   113A      0.564934   114A      0.570712  
     115A      0.582997   116A      0.587844   117A      0.592084  
     118A      0.593862   119A      0.596360   120A      0.608946  
     121A      0.615679   122A      0.621059   123A      0.636701  
     124A      0.643742   125A      0.644496   126A      0.649712  
     127A      0.651819   128A      0.679802   129A      0.685022  
     130A      0.685718   131A      0.687910   132A      0.690002  
     133A      0.690712   134A      0.695071   135A      0.704025  
     136A      0.720501   137A      0.728792   138A      0.746221  
     139A      0.748927   140A      0.754843   141A      0.767632  
     142A      0.775987   143A      0.781504   144A      0.794102  
     145A      0.800161   146A      0.802824   147A      0.812320  
     148A      0.813352   149A      0.819169   150A      0.825067  
     151A      0.831668   152A      0.847598   153A      0.848450  
     154A      0.850034   155A      0.869307   156A      0.880598  
     157A      0.886529   158A      0.888559   159A      0.894748  
     160A      0.906762   161A      0.929324   162A      0.929624  
     163A      0.940079   164A      0.948459   165A      0.949401  
     166A      0.971098   167A      0.977258   168A      0.986940  
     169A      0.997068   170A      0.999372   171A      1.013020  
     172A      1.032577   173A      1.033946   174A      1.047366  
     175A      1.051259   176A      1.076764   177A      1.089383  
     178A      1.090700   179A      1.100609   180A      1.122367  
     181A      1.124129   182A      1.131502   183A      1.134751  
     184A      1.141114   185A      1.158875   186A      1.169022  
     187A      1.171124   188A      1.173754   189A      1.193035  
     190A      1.193671   191A      1.201070   192A      1.222698  
     193A      1.235485   194A      1.238856   195A      1.251340  
     196A      1.307913   197A      1.309891   198A      1.318618  
     199A      1.326881   200A      1.330001   201A      1.331241  
     202A      1.347235   203A      1.389915   204A      1.414310  
     205A      1.448690   206A      1.451673   207A      1.455774  
     208A      1.479479   209A      1.486061   210A      1.487692  
     211A      1.488686   212A      1.499593   213A      1.503034  
     214A      1.518610   215A      1.572730   216A      1.574357  
     217A      1.588072   218A      1.636056   219A      1.640592  
     220A      1.649089   221A      1.659620   222A      1.676786  
     223A      1.698389   224A      1.717147   225A      1.746634  
     226A      1.755108   227A      1.784308   228A      1.815793  
     229A      1.893326   230A      1.916145   231A      1.965013  
     232A      1.987708   233A      2.031250   234A      2.070547  
     235A      2.091560   236A      2.101138   237A      2.103322  
     238A      2.119792   239A      2.143231   240A      2.157069  
     241A      2.159602   242A      2.163587   243A      2.190532  
     244A      2.193582   245A      2.195213   246A      2.200458  
     247A      2.202440   248A      2.227711   249A      2.235120  
     250A      2.241640   251A      2.250017   252A      2.310337  
     253A      2.312997   254A      2.320609   255A      2.355368  
     256A      2.386564   257A      2.419623   258A      2.431013  
     259A      2.435818   260A      2.438501   261A      2.439195  
     262A      2.473030   263A      2.487410   264A      2.498699  
     265A      2.519441   266A      2.522439   267A      2.525561  
     268A      2.546416   269A      2.569025   270A      2.585265  
     271A      2.592778   272A      2.606276   273A      2.626406  
     274A      2.665256   275A      2.675467   276A      2.686481  
     277A      2.714121   278A      2.717427   279A      2.718850  
     280A      2.726963   281A      2.768376   282A      2.844017  
     283A      2.865769   284A      2.905180   285A      2.939269  
     286A      2.948166   287A      2.956228   288A      2.973946  
     289A      3.001872   290A      3.017883   291A      3.032239  
     292A      3.058687   293A      3.065819   294A      3.094154  
     295A      3.114910   296A      3.220919   297A      3.246070  
     298A      3.255985   299A      3.284966   300A      3.290016  
     301A      3.322303   302A      3.338083   303A      3.340923  
     304A      3.348976   305A      3.351702   306A      3.366177  
     307A      3.412978   308A      3.413372   309A      3.471301  
     310A      3.502317   311A      3.514964   312A      3.521778  
     313A      3.590741   314A      3.604813   315A      3.606177  
     316A      3.627883   317A      3.700837   318A      3.819412  
     319A      3.831030   320A      3.941341   321A      3.969458  
     322A      3.977404   323A      4.011797   324A      4.195192  
     325A      4.243034   326A      4.253493   327A      4.442369  
     328A      4.547192   329A      4.579671   330A      4.868106  
     331A      4.976502   332A      5.058285   333A      5.262113  
     334A      5.316892   335A      5.630681   336A      5.691668  
     337A      5.827515   338A      5.952980   339A      6.284267  
     340A      6.307235   341A      6.454118   342A      6.631556  
     343A     18.126064   344A     18.208349   345A     19.018462  
     346A     19.343660   347A     25.287430   348A     25.375131  

    Final Occupation by Irrep:
              A 
    DOCC [    21 ]

  @DF-RHF Final Energy:  -262.63994833730425

   => Energetics <=

    Nuclear Repulsion Energy =            212.5517311104853491
    One-Electron Energy =                -775.4594207114522533
    Two-Electron Energy =                 300.2677412636626855
    Total Energy =                       -262.6399483373042472

Computation Completed


Properties will be evaluated at   0.000000,   0.000000,   0.000000 [a0]

Properties computed using the SCF density matrix

  Nuclear Dipole Moment: [e a0]
     X:    55.0814      Y:    41.1737      Z:    17.9034

  Electronic Dipole Moment: [e a0]
     X:   -55.0814      Y:   -41.1737      Z:   -17.9034

  Dipole Moment: [e a0]
     X:    -0.0000      Y:     0.0000      Z:    -0.0000     Total:     0.0000

  Dipole Moment: [D]
     X:    -0.0000      Y:     0.0000      Z:    -0.0000     Total:     0.0000


*** tstop() called on atl1-1-01-015-12-r.pace.gatech.edu at Mon Nov 29 16:11:02 2021
Module time:
	user time   =      16.31 seconds =       0.27 minutes
	system time =       0.54 seconds =       0.01 minutes
	total time  =          9 seconds =       0.15 minutes
Total time:
	user time   =      43.40 seconds =       0.72 minutes
	system time =       1.64 seconds =       0.03 minutes
	total time  =         24 seconds =       0.40 minutes

  //>>>>>>>>>>>>>>>>>>>>>>>>>>>>>>>>>>>//
  //            Monomer B HF           //
  //<<<<<<<<<<<<<<<<<<<<<<<<<<<<<<<<<<<//


*** tstart() called on atl1-1-01-015-12-r.pace.gatech.edu
*** at Mon Nov 29 16:11:02 2021

   => Loading Basis Set <=

    Name: AUG-CC-PVDZ
    Role: ORBITAL
    Keyword: BASIS
    atoms 1-2, 11-12  entry N          line   218 file /storage/home/hhive1/csargent30/data/miniconda3/envs/psi4/share/psi4/basis/aug-cc-pvdz.gbs 
    atoms 3-6, 13-16  entry H          line    40 file /storage/home/hhive1/csargent30/data/miniconda3/envs/psi4/share/psi4/basis/aug-cc-pvdz.gbs 
    atoms 7-10, 17-20 entry C          line   182 file /storage/home/hhive1/csargent30/data/miniconda3/envs/psi4/share/psi4/basis/aug-cc-pvdz.gbs 


         ---------------------------------------------------------
                                   SCF
               by Justin Turney, Rob Parrish, Andy Simmonett
                          and Daniel G. A. Smith
                              RHF Reference
                        2 Threads,   6675 MiB Core
         ---------------------------------------------------------

  ==> Geometry <==

    Molecular point group: c1
    Full point group: C1

    Geometry (in Bohr), charge = 0, multiplicity = 1:

       Center              X                  Y                   Z               Mass       
    ------------   -----------------  -----------------  -----------------  -----------------
      Gh(N)          -1.330847580000     0.980326580000     0.426270370000    14.003074004430
      Gh(N)           3.953773330000     0.980326580000     0.426270370000    14.003074004430
      Gh(H)           3.567136740000     4.352185690000    -0.942309730000     1.007825032230
      Gh(H)          -0.944210980000     4.352185690000    -0.942309730000     1.007825032230
      Gh(H)          -0.944210980000    -2.391532530000     1.794850470000     1.007825032230
      Gh(H)           3.567136740000    -2.391532530000     1.794850470000     1.007825032230
      Gh(C)           2.622925760000     2.940979740000    -0.426270370000    12.000000000000
      Gh(C)           0.000000000000     2.940979740000    -0.426270370000    12.000000000000
      Gh(C)           0.000000000000    -0.980326580000     1.278811120000    12.000000000000
      Gh(C)           2.622925760000    -0.980326580000     1.278811120000    12.000000000000
         N          -18.953299590000   -10.074949200000    -6.628266220000    14.003074004430
         N          -13.668678680000   -10.074949200000    -6.628266220000    14.003074004430
         H          -14.055315270000    -6.703090090000    -7.996846330000     1.007825032230
         H          -18.566662990000    -6.703090090000    -7.996846330000     1.007825032230
         H          -18.566662990000   -13.446808310000    -5.259686120000     1.007825032230
         H          -14.055315270000   -13.446808310000    -5.259686120000     1.007825032230
         C          -14.999526250000    -8.114296040000    -7.480806970000    12.000000000000
         C          -17.622452010000    -8.114296040000    -7.480806970000    12.000000000000
         C          -17.622452010000   -12.035602360000    -5.775725480000    12.000000000000
         C          -14.999526250000   -12.035602360000    -5.775725480000    12.000000000000

  Running in c1 symmetry.

  Rotational constants: A =      0.08611  B =      0.00178  C =      0.00176 [cm^-1]
  Rotational constants: A =   2581.58191  B =     53.47299  C =     52.82747 [MHz]
  Nuclear repulsion =  212.551731091174531

  Charge       = 0
  Multiplicity = 1
  Electrons    = 42
  Nalpha       = 21
  Nbeta        = 21

  ==> Algorithm <==

  SCF Algorithm Type is DF.
  DIIS enabled.
  MOM disabled.
  Fractional occupation disabled.
  Guess Type is SAD.
  Energy threshold   = 1.00e-10
  Density threshold  = 1.00e-10
  Integral threshold = 1.00e-12

  ==> Primary Basis <==

  Basis Set: AUG-CC-PVDZ
    Blend: AUG-CC-PVDZ
    Number of shells: 148
    Number of basis functions: 348
    Number of Cartesian functions: 372
    Spherical Harmonics?: true
    Max angular momentum: 2

   => Loading Basis Set <=

    Name: (AUG-CC-PVDZ AUX)
    Role: JKFIT
    Keyword: DF_BASIS_SCF
    atoms 1-2, 11-12  entry N          line   212 file /storage/home/hhive1/csargent30/data/miniconda3/envs/psi4/share/psi4/basis/aug-cc-pvdz-jkfit.gbs 
    atoms 3-6, 13-16  entry H          line    70 file /storage/home/hhive1/csargent30/data/miniconda3/envs/psi4/share/psi4/basis/aug-cc-pvdz-jkfit.gbs 
    atoms 7-10, 17-20 entry C          line   154 file /storage/home/hhive1/csargent30/data/miniconda3/envs/psi4/share/psi4/basis/aug-cc-pvdz-jkfit.gbs 

  ==> Integral Setup <==

  ==> DiskDFJK: Density-Fitted J/K Matrices <==

    J tasked:                  Yes
    K tasked:                  Yes
    wK tasked:                  No
    OpenMP threads:              2
    Integrals threads:           2
    Memory [MiB]:             5006
    Algorithm:                Core
    Integral Cache:           LOAD
    Schwarz Cutoff:          1E-12
    Fitting Condition:       1E-10

   => Auxiliary Basis Set <=

  Basis Set: (AUG-CC-PVDZ AUX)
    Blend: AUG-CC-PVDZ-JKFIT
    Number of shells: 432
    Number of basis functions: 1288
    Number of Cartesian functions: 1492
    Spherical Harmonics?: true
    Max angular momentum: 3

  Minimum eigenvalue in the overlap matrix is 9.3873595359E-06.
  Reciprocal condition number of the overlap matrix is 7.3212700521E-07.
    Using symmetric orthogonalization.

  ==> Pre-Iterations <==

  SCF Guess: Superposition of Atomic Densities via on-the-fly atomic UHF (no occupation information).

   -------------------------
    Irrep   Nso     Nmo    
   -------------------------
     A        348     348 
   -------------------------
    Total     348     348
   -------------------------

  ==> Iterations <==

                           Total Energy        Delta E     RMS |[F,P]|

   @DF-RHF iter SAD:  -262.32523127113933   -2.62325e+02   0.00000e+00 
   @DF-RHF iter   1:  -262.53941117718733   -2.14180e-01   1.11986e-03 DIIS
   @DF-RHF iter   2:  -262.62879181872745   -8.93806e-02   4.10665e-04 DIIS
   @DF-RHF iter   3:  -262.63862641084728   -9.83459e-03   1.28247e-04 DIIS
   @DF-RHF iter   4:  -262.63985115813068   -1.22475e-03   3.77600e-05 DIIS
   @DF-RHF iter   5:  -262.63994075867566   -8.96005e-05   7.55565e-06 DIIS
   @DF-RHF iter   6:  -262.63994730901567   -6.55034e-06   2.45266e-06 DIIS
   @DF-RHF iter   7:  -262.63994826140561   -9.52390e-07   6.40134e-07 DIIS
   @DF-RHF iter   8:  -262.63994833529478   -7.38892e-08   9.91702e-08 DIIS
   @DF-RHF iter   9:  -262.63994833727998   -1.98520e-09   1.88238e-08 DIIS
   @DF-RHF iter  10:  -262.63994833735171   -7.17364e-11   3.20138e-09 DIIS
   @DF-RHF iter  11:  -262.63994833735313   -1.42109e-12   6.19918e-10 DIIS
   @DF-RHF iter  12:  -262.63994833735387   -7.38964e-13   3.64980e-10 DIIS
   @DF-RHF iter  13:  -262.63994833735347    3.97904e-13   7.70591e-11 DIIS
  Energy and wave function converged.


  ==> Post-Iterations <==

    Orbital Energies [Eh]
    ---------------------

    Doubly Occupied:                                                      

       1A    -15.598072     2A    -15.598053     3A    -11.274238  
       4A    -11.274193     5A    -11.272974     6A    -11.272968  
       7A     -1.313347     8A     -1.224176     9A     -1.076803  
      10A     -0.922662    11A     -0.919282    12A     -0.760637  
      13A     -0.738402    14A     -0.706214    15A     -0.647687  
      16A     -0.580711    17A     -0.574369    18A     -0.497113  
      19A     -0.434288    20A     -0.415855    21A     -0.359924  

    Virtual:                                                              

      22A      0.022088    23A      0.033238    24A      0.038924  
      25A      0.039795    26A      0.042176    27A      0.050635  
      28A      0.058042    29A      0.060398    30A      0.067183  
      31A      0.080226    32A      0.085308    33A      0.099233  
      34A      0.099784    35A      0.104449    36A      0.107726  
      37A      0.108894    38A      0.114314    39A      0.116892  
      40A      0.121758    41A      0.123117    42A      0.125382  
      43A      0.128129    44A      0.129242    45A      0.131444  
      46A      0.132729    47A      0.135689    48A      0.151844  
      49A      0.153457    50A      0.158049    51A      0.159358  
      52A      0.162070    53A      0.162989    54A      0.169847  
      55A      0.177606    56A      0.180027    57A      0.187562  
      58A      0.198695    59A      0.203915    60A      0.204443  
      61A      0.207032    62A      0.212742    63A      0.223134  
      64A      0.234477    65A      0.240339    66A      0.250480  
      67A      0.256374    68A      0.267601    69A      0.271767  
      70A      0.278244    71A      0.288022    72A      0.293966  
      73A      0.296366    74A      0.302710    75A      0.314892  
      76A      0.319805    77A      0.322831    78A      0.328952  
      79A      0.333162    80A      0.345216    81A      0.355908  
      82A      0.357966    83A      0.364667    84A      0.382070  
      85A      0.383681    86A      0.386906    87A      0.399396  
      88A      0.401568    89A      0.409962    90A      0.420341  
      91A      0.425350    92A      0.426638    93A      0.434009  
      94A      0.437370    95A      0.443615    96A      0.452912  
      97A      0.461164    98A      0.461781    99A      0.471154  
     100A      0.477353   101A      0.479371   102A      0.492848  
     103A      0.505317   104A      0.508457   105A      0.514962  
     106A      0.524184   107A      0.524614   108A      0.530371  
     109A      0.536252   110A      0.554611   111A      0.558586  
     112A      0.561851   113A      0.564934   114A      0.570712  
     115A      0.582997   116A      0.587844   117A      0.592084  
     118A      0.593862   119A      0.596360   120A      0.608946  
     121A      0.615679   122A      0.621059   123A      0.636701  
     124A      0.643742   125A      0.644496   126A      0.649712  
     127A      0.651819   128A      0.679802   129A      0.685022  
     130A      0.685718   131A      0.687910   132A      0.690002  
     133A      0.690712   134A      0.695071   135A      0.704025  
     136A      0.720501   137A      0.728792   138A      0.746221  
     139A      0.748927   140A      0.754843   141A      0.767632  
     142A      0.775987   143A      0.781504   144A      0.794102  
     145A      0.800161   146A      0.802824   147A      0.812320  
     148A      0.813352   149A      0.819169   150A      0.825067  
     151A      0.831668   152A      0.847598   153A      0.848450  
     154A      0.850034   155A      0.869307   156A      0.880598  
     157A      0.886529   158A      0.888559   159A      0.894748  
     160A      0.906762   161A      0.929324   162A      0.929624  
     163A      0.940079   164A      0.948459   165A      0.949401  
     166A      0.971098   167A      0.977258   168A      0.986940  
     169A      0.997068   170A      0.999372   171A      1.013020  
     172A      1.032577   173A      1.033946   174A      1.047366  
     175A      1.051259   176A      1.076764   177A      1.089383  
     178A      1.090700   179A      1.100609   180A      1.122367  
     181A      1.124129   182A      1.131502   183A      1.134751  
     184A      1.141114   185A      1.158875   186A      1.169022  
     187A      1.171124   188A      1.173754   189A      1.193035  
     190A      1.193671   191A      1.201070   192A      1.222698  
     193A      1.235485   194A      1.238856   195A      1.251340  
     196A      1.307913   197A      1.309891   198A      1.318618  
     199A      1.326881   200A      1.330001   201A      1.331241  
     202A      1.347235   203A      1.389915   204A      1.414310  
     205A      1.448690   206A      1.451673   207A      1.455774  
     208A      1.479479   209A      1.486061   210A      1.487692  
     211A      1.488686   212A      1.499593   213A      1.503034  
     214A      1.518610   215A      1.572730   216A      1.574357  
     217A      1.588072   218A      1.636056   219A      1.640592  
     220A      1.649089   221A      1.659620   222A      1.676786  
     223A      1.698389   224A      1.717147   225A      1.746634  
     226A      1.755108   227A      1.784308   228A      1.815793  
     229A      1.893326   230A      1.916145   231A      1.965013  
     232A      1.987708   233A      2.031250   234A      2.070547  
     235A      2.091560   236A      2.101138   237A      2.103322  
     238A      2.119792   239A      2.143231   240A      2.157069  
     241A      2.159602   242A      2.163587   243A      2.190532  
     244A      2.193582   245A      2.195213   246A      2.200458  
     247A      2.202440   248A      2.227711   249A      2.235120  
     250A      2.241640   251A      2.250017   252A      2.310337  
     253A      2.312997   254A      2.320609   255A      2.355368  
     256A      2.386564   257A      2.419623   258A      2.431013  
     259A      2.435818   260A      2.438501   261A      2.439195  
     262A      2.473030   263A      2.487410   264A      2.498699  
     265A      2.519441   266A      2.522439   267A      2.525561  
     268A      2.546416   269A      2.569025   270A      2.585265  
     271A      2.592778   272A      2.606276   273A      2.626406  
     274A      2.665256   275A      2.675467   276A      2.686481  
     277A      2.714121   278A      2.717427   279A      2.718850  
     280A      2.726963   281A      2.768376   282A      2.844017  
     283A      2.865769   284A      2.905180   285A      2.939269  
     286A      2.948166   287A      2.956228   288A      2.973946  
     289A      3.001872   290A      3.017883   291A      3.032239  
     292A      3.058687   293A      3.065819   294A      3.094154  
     295A      3.114910   296A      3.220919   297A      3.246070  
     298A      3.255985   299A      3.284966   300A      3.290016  
     301A      3.322303   302A      3.338083   303A      3.340923  
     304A      3.348976   305A      3.351702   306A      3.366177  
     307A      3.412978   308A      3.413372   309A      3.471301  
     310A      3.502317   311A      3.514964   312A      3.521778  
     313A      3.590741   314A      3.604813   315A      3.606177  
     316A      3.627883   317A      3.700837   318A      3.819412  
     319A      3.831030   320A      3.941341   321A      3.969458  
     322A      3.977404   323A      4.011797   324A      4.195192  
     325A      4.243034   326A      4.253493   327A      4.442369  
     328A      4.547192   329A      4.579671   330A      4.868106  
     331A      4.976502   332A      5.058285   333A      5.262113  
     334A      5.316892   335A      5.630681   336A      5.691668  
     337A      5.827515   338A      5.952980   339A      6.284267  
     340A      6.307235   341A      6.454118   342A      6.631556  
     343A     18.126064   344A     18.208349   345A     19.018462  
     346A     19.343660   347A     25.287430   348A     25.375131  

    Final Occupation by Irrep:
              A 
    DOCC [    21 ]

  @DF-RHF Final Energy:  -262.63994833735347

   => Energetics <=

    Nuclear Repulsion Energy =            212.5517310911745312
    One-Electron Energy =                -775.4594206761036048
    Two-Electron Energy =                 300.2677412475756569
    Total Energy =                       -262.6399483373534736

Computation Completed


Properties will be evaluated at   0.000000,   0.000000,   0.000000 [a0]

Properties computed using the SCF density matrix

  Nuclear Dipole Moment: [e a0]
     X:  -685.0615      Y:  -423.1479      Z:  -278.3872

  Electronic Dipole Moment: [e a0]
     X:   685.0615      Y:   423.1479      Z:   278.3872

  Dipole Moment: [e a0]
     X:     0.0000      Y:    -0.0000      Z:     0.0000     Total:     0.0000

  Dipole Moment: [D]
     X:     0.0000      Y:    -0.0000      Z:     0.0000     Total:     0.0000


*** tstop() called on atl1-1-01-015-12-r.pace.gatech.edu at Mon Nov 29 16:11:12 2021
Module time:
	user time   =      16.48 seconds =       0.27 minutes
	system time =       0.52 seconds =       0.01 minutes
	total time  =         10 seconds =       0.17 minutes
Total time:
	user time   =      59.89 seconds =       1.00 minutes
	system time =       2.16 seconds =       0.04 minutes
	total time  =         34 seconds =       0.57 minutes
  Constructing Basis Sets for SAPT...

   => Loading Basis Set <=

    Name: (AUG-CC-PVDZ AUX)
    Role: RIFIT
    Keyword: DF_BASIS_SAPT
    atoms 1-2, 11-12  entry N          line   158 file /storage/home/hhive1/csargent30/data/miniconda3/envs/psi4/share/psi4/basis/aug-cc-pvdz-ri.gbs 
    atoms 3-6, 13-16  entry H          line    30 file /storage/home/hhive1/csargent30/data/miniconda3/envs/psi4/share/psi4/basis/aug-cc-pvdz-ri.gbs 
    atoms 7-10, 17-20 entry C          line   112 file /storage/home/hhive1/csargent30/data/miniconda3/envs/psi4/share/psi4/basis/aug-cc-pvdz-ri.gbs 


  //>>>>>>>>>>>>>>>>>>>>>>>>>>>>>>>>>>>//
  //               SAPT0               //
  //<<<<<<<<<<<<<<<<<<<<<<<<<<<<<<<<<<<//


*** tstart() called on atl1-1-01-015-12-r.pace.gatech.edu
*** at Mon Nov 29 16:11:12 2021

        SAPT0  
    Ed Hohenstein
     6 June 2009

      Orbital Information
  --------------------------
    NSO        =       348
    NMO        =       348
    NRI        =      1048
    NOCC A     =        21
    NOCC B     =        21
    FOCC A     =         6
    FOCC B     =         6
    NVIR A     =       327
    NVIR B     =       327

    Elst10,r            =    -0.000010226100 [Eh]
    Exch10              =     0.000000001043 [Eh]
    Exch10 (S^2)        =     0.000000001043 [Eh]

    Iter     Energy [mEh]          dE [mEh]         Residual      Time [s]
       1      -0.00018030       0.000180298       0.144192652             0
       2      -0.00016405      -0.000016244       0.032429254             0
       3      -0.00017996       0.000015911       0.013552568             1
       4      -0.00018248       0.000002514       0.005523134             1
       5      -0.00018168      -0.000000804       0.003254403             2
       6      -0.00018138      -0.000000294       0.001074673             2
       7      -0.00018146       0.000000074       0.000360442             2
       8      -0.00018149       0.000000031       0.000124424             3
       9      -0.00018149      -0.000000001       0.000036919             3
      10      -0.00018148      -0.000000005       0.000011515             3
      11      -0.00018148       0.000000001       0.000005890             4
      12      -0.00018148       0.000000000       0.000002542             4
      13      -0.00018148      -0.000000000       0.000000908             4

    CHF Iterations converged


    Iter     Energy [mEh]          dE [mEh]         Residual      Time [s]
       1      -0.00018030       0.000180298       0.144192655             1
       2      -0.00016405      -0.000016244       0.032429254             1
       3      -0.00017996       0.000015911       0.013552568             2
       4      -0.00018248       0.000002514       0.005523134             2
       5      -0.00018168      -0.000000804       0.003254403             2
       6      -0.00018138      -0.000000294       0.001074673             3
       7      -0.00018146       0.000000074       0.000360442             3
       8      -0.00018149       0.000000031       0.000124424             3
       9      -0.00018149      -0.000000001       0.000036919             4
      10      -0.00018148      -0.000000005       0.000011515             4
      11      -0.00018148       0.000000001       0.000005890             4
      12      -0.00018148       0.000000000       0.000002542             5
      13      -0.00018148      -0.000000000       0.000000908             5

    CHF Iterations converged

    Ind20,r (A<-B)      =    -0.000000181481 [Eh]
    Ind20,r (B<-A)      =    -0.000000181481 [Eh]
    Ind20,r             =    -0.000000362963 [Eh]
    Exch-Ind20,r (A<-B) =     0.000000002027 [Eh]
    Exch-Ind20,r (B<-A) =     0.000000002027 [Eh]
    Exch-Ind20,r        =     0.000000004054 [Eh]
    Disp20              =    -0.000017637625 [Eh]
    Disp20 (SS)         =    -0.000008818812 [Eh]
    Disp20 (OS)         =    -0.000008818812 [Eh]
    Exch-Disp20         =     0.000000000388 [Eh]
    Exch-Disp20 (SS)    =     0.000000000331 [Eh]
    Exch-Disp20 (OS)    =     0.000000000058 [Eh]

    SAPT Results 
  --------------------------------------------------------------------------------------------------------
    Electrostatics                 -0.01022610 [mEh]      -0.00641697 [kcal/mol]      -0.02684862 [kJ/mol]
      Elst10,r                     -0.01022610 [mEh]      -0.00641697 [kcal/mol]      -0.02684862 [kJ/mol]

    Exchange                        0.00000104 [mEh]       0.00000065 [kcal/mol]       0.00000274 [kJ/mol]
      Exch10                        0.00000104 [mEh]       0.00000065 [kcal/mol]       0.00000274 [kJ/mol]
      Exch10(S^2)                   0.00000104 [mEh]       0.00000065 [kcal/mol]       0.00000274 [kJ/mol]

    Induction                      -0.00027899 [mEh]      -0.00017507 [kcal/mol]      -0.00073250 [kJ/mol]
      Ind20,r                      -0.00036296 [mEh]      -0.00022776 [kcal/mol]      -0.00095296 [kJ/mol]
      Exch-Ind20,r                  0.00000405 [mEh]       0.00000254 [kcal/mol]       0.00001064 [kJ/mol]
      delta HF,r (2)                0.00007992 [mEh]       0.00005015 [kcal/mol]       0.00020982 [kJ/mol]

    Dispersion                     -0.01763724 [mEh]      -0.01106753 [kcal/mol]      -0.04630656 [kJ/mol]
      Disp20                       -0.01763762 [mEh]      -0.01106778 [kcal/mol]      -0.04630758 [kJ/mol]
      Exch-Disp20                   0.00000039 [mEh]       0.00000024 [kcal/mol]       0.00000102 [kJ/mol]
      Disp20 (SS)                  -0.00881881 [mEh]      -0.00553389 [kcal/mol]      -0.02315379 [kJ/mol]
      Disp20 (OS)                  -0.00881881 [mEh]      -0.00553389 [kcal/mol]      -0.02315379 [kJ/mol]
      Exch-Disp20 (SS)              0.00000033 [mEh]       0.00000021 [kcal/mol]       0.00000087 [kJ/mol]
      Exch-Disp20 (OS)              0.00000006 [mEh]       0.00000004 [kcal/mol]       0.00000015 [kJ/mol]

  Total HF                         -0.01050405 [mEh]      -0.00659139 [kcal/mol]      -0.02757838 [kJ/mol]
  Total SAPT0                      -0.02814129 [mEh]      -0.01765892 [kcal/mol]      -0.07388494 [kJ/mol]

  Special recipe for scaled SAPT0 (see Manual):
    Electrostatics sSAPT0          -0.01022610 [mEh]      -0.00641697 [kcal/mol]      -0.02684862 [kJ/mol]
    Exchange sSAPT0                 0.00000104 [mEh]       0.00000065 [kcal/mol]       0.00000274 [kJ/mol]
    Induction sSAPT0               -0.00027899 [mEh]      -0.00017507 [kcal/mol]      -0.00073250 [kJ/mol]
    Dispersion sSAPT0              -0.01763724 [mEh]      -0.01106753 [kcal/mol]      -0.04630656 [kJ/mol]
  Total sSAPT0                     -0.02814129 [mEh]      -0.01765892 [kcal/mol]      -0.07388494 [kJ/mol]
  --------------------------------------------------------------------------------------------------------

*** tstop() called on atl1-1-01-015-12-r.pace.gatech.edu at Mon Nov 29 16:11:39 2021
Module time:
	user time   =      39.93 seconds =       0.67 minutes
	system time =      10.01 seconds =       0.17 minutes
	total time  =         27 seconds =       0.45 minutes
Total time:
	user time   =     100.06 seconds =       1.67 minutes
	system time =      12.17 seconds =       0.20 minutes
	total time  =         61 seconds =       1.02 minutes


Warning! sapt0 does not have an associated derived wavefunction.The returned wavefunction is the dimer SCF wavefunction.


    Psi4 stopped on: Monday, 29 November 2021 04:11PM
    Psi4 wall time for execution: 0:01:00.77

*** Psi4 exiting successfully. Buy a developer a beer!
