
    -----------------------------------------------------------------------
          Psi4: An Open-Source Ab Initio Electronic Structure Package
                               Psi4 1.4.1 release

                         Git: Rev {HEAD} cd00f19


    D. G. A. Smith, L. A. Burns, A. C. Simmonett, R. M. Parrish,
    M. C. Schieber, R. Galvelis, P. Kraus, H. Kruse, R. Di Remigio,
    A. Alenaizan, A. M. James, S. Lehtola, J. P. Misiewicz, M. Scheurer,
    R. A. Shaw, J. B. Schriber, Y. Xie, Z. L. Glick, D. A. Sirianni,
    J. S. O'Brien, J. M. Waldrop, A. Kumar, E. G. Hohenstein,
    B. P. Pritchard, B. R. Brooks, H. F. Schaefer III, A. Yu. Sokolov,
    K. Patkowski, A. E. DePrince III, U. Bozkaya, R. A. King,
    F. A. Evangelista, J. M. Turney, T. D. Crawford, C. D. Sherrill,
    J. Chem. Phys. 152(18) 184108 (2020). https://doi.org/10.1063/5.0006002

                            Additional Code Authors
    E. T. Seidl, C. L. Janssen, E. F. Valeev, M. L. Leininger,
    J. F. Gonthier, R. M. Richard, H. R. McAlexander, M. Saitow, X. Wang,
    P. Verma, and M. H. Lechner

             Previous Authors, Complete List of Code Contributors,
                       and Citations for Specific Modules
    https://github.com/psi4/psi4/blob/master/codemeta.json
    https://github.com/psi4/psi4/graphs/contributors
    http://psicode.org/psi4manual/master/introduction.html#citing-psifour

    -----------------------------------------------------------------------


    Psi4 started on: Monday, 29 November 2021 04:10PM

    Process ID: 219660
    Host:       atl1-1-01-015-6-r.pace.gatech.edu
    PSIDATADIR: /storage/home/hhive1/csargent30/data/miniconda3/envs/psi4/share/psi4
    Memory:     500.0 MiB
    Threads:    2

  ==> Input File <==

--------------------------------------------------------------------------
# PSI4 file produced by CrystaLattE

# Generated from:               pyrazine.xyz
# Psithon input for N-mer:      2mer-0+346
# Number of atoms per monomer:  [10, 10]
# Number of replicas:           4
# COM priority:                 1.617551194299e-05
# Minimum COM separations:      20.924
# Separation priority:          2.349881394382e-05
# Minimum monomer separations:  18.475
# Cutoff priority:              6.730715858035e-07
# Nuclear repulsion energy:     469.7586704798863

memory 7 GB

molecule Dimer_0_346 {
  N           -1.33084758       0.98032658       0.42627037
  N            3.95377333       0.98032658       0.42627037
  H            3.56713674       4.35218569      -0.94230973
  H           -0.94421098       4.35218569      -0.94230973
  H           -0.94421098      -2.39153253       1.79485047
  H            3.56713674      -2.39153253       1.79485047
  C            2.62292576       2.94097974      -0.42627037
  C            0.00000000       2.94097974      -0.42627037
  C            0.00000000      -0.98032658       1.27881112
  C            2.62292576      -0.98032658       1.27881112
--
  N          -36.57575160     -10.07494920     -13.68280282
  N          -31.29113069     -10.07494920     -13.68280282
  H          -31.67776728      -6.70309009     -15.05138292
  H          -36.18911500      -6.70309009     -15.05138292
  H          -36.18911500     -13.44680831     -12.31422272
  H          -31.67776728     -13.44680831     -12.31422272
  C          -32.62197826      -8.11429604     -14.53534357
  C          -35.24490402      -8.11429604     -14.53534357
  C          -35.24490402     -12.03560236     -12.83026208
  C          -32.62197826     -12.03560236     -12.83026208
units = au
no_com
no_reorient
}

set {
  e_convergence 10
  d_convergence 10
  scf_type df
  mp2_type df
  cc_type df
  freeze_core true
}

energy('sapt0/aug-cc-pvdz')

--------------------------------------------------------------------------

  Memory set to   6.519 GiB by Python driver.

Scratch directory: /tmp/

Scratch directory: /tmp/

  //>>>>>>>>>>>>>>>>>>>>>>>>>>>>>>>>>>>//
  //              Dimer HF             //
  //<<<<<<<<<<<<<<<<<<<<<<<<<<<<<<<<<<<//


*** tstart() called on atl1-1-01-015-6-r.pace.gatech.edu
*** at Mon Nov 29 16:10:38 2021

   => Loading Basis Set <=

    Name: AUG-CC-PVDZ
    Role: ORBITAL
    Keyword: BASIS
    atoms 1-2, 11-12  entry N          line   218 file /storage/home/hhive1/csargent30/data/miniconda3/envs/psi4/share/psi4/basis/aug-cc-pvdz.gbs
    atoms 3-6, 13-16  entry H          line    40 file /storage/home/hhive1/csargent30/data/miniconda3/envs/psi4/share/psi4/basis/aug-cc-pvdz.gbs
    atoms 7-10, 17-20 entry C          line   182 file /storage/home/hhive1/csargent30/data/miniconda3/envs/psi4/share/psi4/basis/aug-cc-pvdz.gbs


         ---------------------------------------------------------
                                   SCF
               by Justin Turney, Rob Parrish, Andy Simmonett
                          and Daniel G. A. Smith
                              RHF Reference
                        2 Threads,   6675 MiB Core
         ---------------------------------------------------------

  ==> Geometry <==

    Molecular point group: c1
    Full point group: C1

    Geometry (in Bohr), charge = 0, multiplicity = 1:

       Center              X                  Y                   Z               Mass
    ------------   -----------------  -----------------  -----------------  -----------------
         N           -1.330847580000     0.980326580000     0.426270370000    14.003074004430
         N            3.953773330000     0.980326580000     0.426270370000    14.003074004430
         H            3.567136740000     4.352185690000    -0.942309730000     1.007825032230
         H           -0.944210980000     4.352185690000    -0.942309730000     1.007825032230
         H           -0.944210980000    -2.391532530000     1.794850470000     1.007825032230
         H            3.567136740000    -2.391532530000     1.794850470000     1.007825032230
         C            2.622925760000     2.940979740000    -0.426270370000    12.000000000000
         C            0.000000000000     2.940979740000    -0.426270370000    12.000000000000
         C            0.000000000000    -0.980326580000     1.278811120000    12.000000000000
         C            2.622925760000    -0.980326580000     1.278811120000    12.000000000000
         N          -36.575751600000   -10.074949200000   -13.682802820000    14.003074004430
         N          -31.291130690000   -10.074949200000   -13.682802820000    14.003074004430
         H          -31.677767280000    -6.703090090000   -15.051382920000     1.007825032230
         H          -36.189115000000    -6.703090090000   -15.051382920000     1.007825032230
         H          -36.189115000000   -13.446808310000   -12.314222720000     1.007825032230
         H          -31.677767280000   -13.446808310000   -12.314222720000     1.007825032230
         C          -32.621978260000    -8.114296040000   -14.535343570000    12.000000000000
         C          -35.244904020000    -8.114296040000   -14.535343570000    12.000000000000
         C          -35.244904020000   -12.035602360000   -12.830262080000    12.000000000000
         C          -32.621978260000   -12.035602360000   -12.830262080000    12.000000000000

  Running in c1 symmetry.

  Rotational constants: A =      0.08765  B =      0.00052  C =      0.00052 [cm^-1]
  Rotational constants: A =   2627.67152  B =     15.54889  C =     15.48757 [MHz]
  Nuclear repulsion =  469.758670478231295

  Charge       = 0
  Multiplicity = 1
  Electrons    = 84
  Nalpha       = 42
  Nbeta        = 42

  ==> Algorithm <==

  SCF Algorithm Type is DF.
  DIIS enabled.
  MOM disabled.
  Fractional occupation disabled.
  Guess Type is SAD.
  Energy threshold   = 1.00e-10
  Density threshold  = 1.00e-10
  Integral threshold = 1.00e-12

  ==> Primary Basis <==

  Basis Set: AUG-CC-PVDZ
    Blend: AUG-CC-PVDZ
    Number of shells: 148
    Number of basis functions: 348
    Number of Cartesian functions: 372
    Spherical Harmonics?: true
    Max angular momentum: 2

   => Loading Basis Set <=

    Name: (AUG-CC-PVDZ AUX)
    Role: JKFIT
    Keyword: DF_BASIS_SCF
    atoms 1-2, 11-12  entry N          line   212 file /storage/home/hhive1/csargent30/data/miniconda3/envs/psi4/share/psi4/basis/aug-cc-pvdz-jkfit.gbs
    atoms 3-6, 13-16  entry H          line    70 file /storage/home/hhive1/csargent30/data/miniconda3/envs/psi4/share/psi4/basis/aug-cc-pvdz-jkfit.gbs
    atoms 7-10, 17-20 entry C          line   154 file /storage/home/hhive1/csargent30/data/miniconda3/envs/psi4/share/psi4/basis/aug-cc-pvdz-jkfit.gbs

  ==> Integral Setup <==

  ==> DiskDFJK: Density-Fitted J/K Matrices <==

    J tasked:                  Yes
    K tasked:                  Yes
    wK tasked:                  No
    OpenMP threads:              2
    Integrals threads:           2
    Memory [MiB]:             5006
    Algorithm:                Core
    Integral Cache:           SAVE
    Schwarz Cutoff:          1E-12
    Fitting Condition:       1E-10

   => Auxiliary Basis Set <=

  Basis Set: (AUG-CC-PVDZ AUX)
    Blend: AUG-CC-PVDZ-JKFIT
    Number of shells: 432
    Number of basis functions: 1288
    Number of Cartesian functions: 1492
    Spherical Harmonics?: true
    Max angular momentum: 3

  Minimum eigenvalue in the overlap matrix is 9.4898470893E-06.
  Reciprocal condition number of the overlap matrix is 7.4017696004E-07.
    Using symmetric orthogonalization.

  ==> Pre-Iterations <==

  SCF Guess: Superposition of Atomic Densities via on-the-fly atomic UHF (no occupation information).

   -------------------------
    Irrep   Nso     Nmo
   -------------------------
     A        348     348
   -------------------------
    Total     348     348
   -------------------------

  ==> Iterations <==

                           Total Energy        Delta E     RMS |[F,P]|

   @DF-RHF iter SAD:  -524.65046251934950   -5.24650e+02   0.00000e+00
   @DF-RHF iter   1:  -525.07881300323584   -4.28350e-01   1.58372e-03 DIIS
   @DF-RHF iter   2:  -525.25757398909036   -1.78761e-01   5.80773e-04 DIIS
   @DF-RHF iter   3:  -525.27724337856353   -1.96694e-02   1.81373e-04 DIIS
   @DF-RHF iter   4:  -525.27969292987257   -2.44955e-03   5.34018e-05 DIIS
   @DF-RHF iter   5:  -525.27987213874360   -1.79209e-04   1.06852e-05 DIIS
   @DF-RHF iter   6:  -525.27988523948613   -1.31007e-05   3.46863e-06 DIIS
   @DF-RHF iter   7:  -525.27988714432229   -1.90484e-06   9.05344e-07 DIIS
   @DF-RHF iter   8:  -525.27988729210279   -1.47780e-07   1.40830e-07 DIIS
   @DF-RHF iter   9:  -525.27988729606795   -3.96517e-09   3.12113e-08 DIIS
   @DF-RHF iter  10:  -525.27988729620722   -1.39266e-10   1.71255e-08 DIIS
   @DF-RHF iter  11:  -525.27988729622996   -2.27374e-11   2.90657e-09 DIIS
   @DF-RHF iter  12:  -525.27988729623064   -6.82121e-13   4.73773e-10 DIIS
   @DF-RHF iter  13:  -525.27988729623110   -4.54747e-13   1.79895e-10 DIIS
   @DF-RHF iter  14:  -525.27988729623257   -1.47793e-12   6.00417e-11 DIIS
  Energy and wave function converged.


  ==> Post-Iterations <==

    Orbital Energies [Eh]
    ---------------------

    Doubly Occupied:

       1A    -15.597972     2A    -15.597972     3A    -15.597951
       4A    -15.597951     5A    -11.274139     6A    -11.274139
       7A    -11.274094     8A    -11.274094     9A    -11.272875
      10A    -11.272875    11A    -11.272869    12A    -11.272869
      13A     -1.313246    14A     -1.313246    15A     -1.224075
      16A     -1.224075    17A     -1.076703    18A     -1.076703
      19A     -0.922562    20A     -0.922562    21A     -0.919182
      22A     -0.919182    23A     -0.760536    24A     -0.760536
      25A     -0.738302    26A     -0.738302    27A     -0.706113
      28A     -0.706113    29A     -0.647587    30A     -0.647587
      31A     -0.580611    32A     -0.580611    33A     -0.574269
      34A     -0.574269    35A     -0.497011    36A     -0.497011
      37A     -0.434187    38A     -0.434187    39A     -0.415754
      40A     -0.415754    41A     -0.359824    42A     -0.359824

    Virtual:

      43A      0.034593    44A      0.034593    45A      0.040831
      46A      0.040831    47A      0.048485    48A      0.048485
      49A      0.058689    50A      0.058689    51A      0.067213
      52A      0.067213    53A      0.099520    54A      0.099520
      55A      0.101046    56A      0.101046    57A      0.114302
      58A      0.114302    59A      0.115053    60A      0.115053
      61A      0.123876    62A      0.123877    63A      0.125424
      64A      0.125424    65A      0.128759    66A      0.128759
      67A      0.132987    68A      0.132987    69A      0.158293
      70A      0.158293    71A      0.161181    72A      0.161181
      73A      0.161425    74A      0.161425    75A      0.164014
      76A      0.164015    77A      0.175277    78A      0.175277
      79A      0.187019    80A      0.187019    81A      0.204007
      82A      0.204007    83A      0.212641    84A      0.212642
      85A      0.250620    86A      0.250620    87A      0.267859
      88A      0.267859    89A      0.278157    90A      0.278157
      91A      0.287915    92A      0.287915    93A      0.293306
      94A      0.293306    95A      0.295852    96A      0.295854
      97A      0.314932    98A      0.314932    99A      0.320557
     100A      0.320557   101A      0.355528   102A      0.355528
     103A      0.358007   104A      0.358007   105A      0.364761
     106A      0.364761   107A      0.382682   108A      0.382682
     109A      0.398989   110A      0.398989   111A      0.409995
     112A      0.409995   113A      0.425551   114A      0.425551
     115A      0.434023   116A      0.434023   117A      0.437308
     118A      0.437308   119A      0.452192   120A      0.452192
     121A      0.471583   122A      0.471583   123A      0.492239
     124A      0.492239   125A      0.504960   126A      0.504960
     127A      0.515013   128A      0.515013   129A      0.524647
     130A      0.524647   131A      0.528768   132A      0.528768
     133A      0.554677   134A      0.554677   135A      0.570635
     136A      0.570635   137A      0.587635   138A      0.587635
     139A      0.591607   140A      0.591607   141A      0.593900
     142A      0.593900   143A      0.609029   144A      0.609029
     145A      0.643618   146A      0.643618   147A      0.644419
     148A      0.644419   149A      0.685237   150A      0.685237
     151A      0.687858   152A      0.687858   153A      0.690030
     154A      0.690031   155A      0.690443   156A      0.690443
     157A      0.694927   158A      0.694927   159A      0.703929
     160A      0.703929   161A      0.746656   162A      0.746656
     163A      0.754916   164A      0.754916   165A      0.767066
     166A      0.767066   167A      0.781507   168A      0.781507
     169A      0.799914   170A      0.799914   171A      0.802809
     172A      0.802809   173A      0.819117   174A      0.819117
     175A      0.831172   176A      0.831172   177A      0.847613
     178A      0.847614   179A      0.880644   180A      0.880644
     181A      0.886509   182A      0.886509   183A      0.894783
     184A      0.894783   185A      0.929371   186A      0.929371
     187A      0.939567   188A      0.939567   189A      0.949406
     190A      0.949406   191A      0.996753   192A      0.996753
     193A      0.999010   194A      0.999010   195A      1.013117
     196A      1.013117   197A      1.033470   198A      1.033470
     199A      1.051294   200A      1.051294   201A      1.089482
     202A      1.089482   203A      1.100546   204A      1.100546
     205A      1.122298   206A      1.122298   207A      1.124145
     208A      1.124145   209A      1.134462   210A      1.134462
     211A      1.158841   212A      1.158841   213A      1.173665
     214A      1.173665   215A      1.235517   216A      1.235517
     217A      1.238904   218A      1.238904   219A      1.309774
     220A      1.309774   221A      1.331249   222A      1.331249
     223A      1.414382   224A      1.414382   225A      1.451627
     226A      1.451627   227A      1.486238   228A      1.486238
     229A      1.488176   230A      1.488176   231A      1.499310
     232A      1.499310   233A      1.502946   234A      1.502946
     235A      1.518351   236A      1.518351   237A      1.572786
     238A      1.572786   239A      1.574292   240A      1.574292
     241A      1.587936   242A      1.587936   243A      1.636082
     244A      1.636082   245A      1.640604   246A      1.640604
     247A      1.648320   248A      1.648320   249A      1.676652
     250A      1.676652   251A      1.717092   252A      1.717092
     253A      1.746698   254A      1.746698   255A      1.755204
     256A      1.755204   257A      1.783863   258A      1.783863
     259A      1.815827   260A      1.815827   261A      1.893423
     262A      1.893423   263A      1.916237   264A      1.916237
     265A      1.964928   266A      1.964928   267A      1.987775
     268A      1.987775   269A      2.031302   270A      2.031302
     271A      2.091648   272A      2.091648   273A      2.101128
     274A      2.101128   275A      2.143054   276A      2.143054
     277A      2.163456   278A      2.163456   279A      2.190588
     280A      2.190588   281A      2.193402   282A      2.193402
     283A      2.200480   284A      2.200480   285A      2.202510
     286A      2.202510   287A      2.227726   288A      2.227726
     289A      2.312861   290A      2.312861   291A      2.355328
     292A      2.355328   293A      2.431057   294A      2.431057
     295A      2.439077   296A      2.439077   297A      2.519479
     298A      2.519479   299A      2.522495   300A      2.522495
     301A      2.584868   302A      2.584868   303A      2.606367
     304A      2.606367   305A      2.665324   306A      2.665324
     307A      2.675510   308A      2.675510   309A      2.686496
     310A      2.686496   311A      2.714086   312A      2.714086
     313A      2.718691   314A      2.718691   315A      2.844115
     316A      2.844115   317A      2.865861   318A      2.865861
     319A      2.939296   320A      2.939296   321A      3.001955
     322A      3.001955   323A      3.017972   324A      3.017972
     325A      3.032287   326A      3.032287   327A      3.094237
     328A      3.094237   329A      3.220416   330A      3.220416
     331A      3.256080   332A      3.256080   333A      3.284981
     334A      3.284981   335A      3.366240   336A      3.366240
     337A      3.413467   338A      3.413467   339A      3.515020
     340A      3.515020   341A      3.590755   342A      3.590755
     343A      3.627869   344A      3.627869   345A      3.977336
     346A      3.977336   347A      4.253585   348A      4.253585

    Final Occupation by Irrep:
              A
    DOCC [    42 ]

  @DF-RHF Final Energy:  -525.27988729623257

   => Energetics <=

    Nuclear Repulsion Energy =            469.7586704782312950
    One-Electron Energy =               -1640.2376664542719027
    Two-Electron Energy =                 645.1991086798079778
    Total Energy =                       -525.2798872962325731

Computation Completed


Properties will be evaluated at   0.000000,   0.000000,   0.000000 [a0]

Properties computed using the SCF density matrix

  Nuclear Dipole Moment: [e a0]
     X: -1370.1231      Y:  -381.9742      Z:  -556.7744

  Electronic Dipole Moment: [e a0]
     X:  1370.1231      Y:   381.9742      Z:   556.7744

  Dipole Moment: [e a0]
     X:     0.0000      Y:    -0.0000      Z:     0.0000     Total:     0.0000

  Dipole Moment: [D]
     X:     0.0000      Y:    -0.0000      Z:     0.0000     Total:     0.0000


*** tstop() called on atl1-1-01-015-6-r.pace.gatech.edu at Mon Nov 29 16:10:51 2021
Module time:
	user time   =      24.37 seconds =       0.41 minutes
	system time =       0.95 seconds =       0.02 minutes
	total time  =         13 seconds =       0.22 minutes
Total time:
	user time   =      24.37 seconds =       0.41 minutes
	system time =       0.95 seconds =       0.02 minutes
	total time  =         13 seconds =       0.22 minutes

  //>>>>>>>>>>>>>>>>>>>>>>>>>>>>>>>>>>>//
  //            Monomer A HF           //
  //<<<<<<<<<<<<<<<<<<<<<<<<<<<<<<<<<<<//


*** tstart() called on atl1-1-01-015-6-r.pace.gatech.edu
*** at Mon Nov 29 16:10:51 2021

   => Loading Basis Set <=

    Name: AUG-CC-PVDZ
    Role: ORBITAL
    Keyword: BASIS
    atoms 1-2, 11-12  entry N          line   218 file /storage/home/hhive1/csargent30/data/miniconda3/envs/psi4/share/psi4/basis/aug-cc-pvdz.gbs
    atoms 3-6, 13-16  entry H          line    40 file /storage/home/hhive1/csargent30/data/miniconda3/envs/psi4/share/psi4/basis/aug-cc-pvdz.gbs
    atoms 7-10, 17-20 entry C          line   182 file /storage/home/hhive1/csargent30/data/miniconda3/envs/psi4/share/psi4/basis/aug-cc-pvdz.gbs


         ---------------------------------------------------------
                                   SCF
               by Justin Turney, Rob Parrish, Andy Simmonett
                          and Daniel G. A. Smith
                              RHF Reference
                        2 Threads,   6675 MiB Core
         ---------------------------------------------------------

  ==> Geometry <==

    Molecular point group: c1
    Full point group: C1

    Geometry (in Bohr), charge = 0, multiplicity = 1:

       Center              X                  Y                   Z               Mass
    ------------   -----------------  -----------------  -----------------  -----------------
         N           -1.330847580000     0.980326580000     0.426270370000    14.003074004430
         N            3.953773330000     0.980326580000     0.426270370000    14.003074004430
         H            3.567136740000     4.352185690000    -0.942309730000     1.007825032230
         H           -0.944210980000     4.352185690000    -0.942309730000     1.007825032230
         H           -0.944210980000    -2.391532530000     1.794850470000     1.007825032230
         H            3.567136740000    -2.391532530000     1.794850470000     1.007825032230
         C            2.622925760000     2.940979740000    -0.426270370000    12.000000000000
         C            0.000000000000     2.940979740000    -0.426270370000    12.000000000000
         C            0.000000000000    -0.980326580000     1.278811120000    12.000000000000
         C            2.622925760000    -0.980326580000     1.278811120000    12.000000000000
      Gh(N)         -36.575751600000   -10.074949200000   -13.682802820000    14.003074004430
      Gh(N)         -31.291130690000   -10.074949200000   -13.682802820000    14.003074004430
      Gh(H)         -31.677767280000    -6.703090090000   -15.051382920000     1.007825032230
      Gh(H)         -36.189115000000    -6.703090090000   -15.051382920000     1.007825032230
      Gh(H)         -36.189115000000   -13.446808310000   -12.314222720000     1.007825032230
      Gh(H)         -31.677767280000   -13.446808310000   -12.314222720000     1.007825032230
      Gh(C)         -32.621978260000    -8.114296040000   -14.535343570000    12.000000000000
      Gh(C)         -35.244904020000    -8.114296040000   -14.535343570000    12.000000000000
      Gh(C)         -35.244904020000   -12.035602360000   -12.830262080000    12.000000000000
      Gh(C)         -32.621978260000   -12.035602360000   -12.830262080000    12.000000000000

  Running in c1 symmetry.

  Rotational constants: A =      0.08765  B =      0.00052  C =      0.00052 [cm^-1]
  Rotational constants: A =   2627.67152  B =     15.54889  C =     15.48757 [MHz]
  Nuclear repulsion =  212.551731110485349

  Charge       = 0
  Multiplicity = 1
  Electrons    = 42
  Nalpha       = 21
  Nbeta        = 21

  ==> Algorithm <==

  SCF Algorithm Type is DF.
  DIIS enabled.
  MOM disabled.
  Fractional occupation disabled.
  Guess Type is SAD.
  Energy threshold   = 1.00e-10
  Density threshold  = 1.00e-10
  Integral threshold = 1.00e-12

  ==> Primary Basis <==

  Basis Set: AUG-CC-PVDZ
    Blend: AUG-CC-PVDZ
    Number of shells: 148
    Number of basis functions: 348
    Number of Cartesian functions: 372
    Spherical Harmonics?: true
    Max angular momentum: 2

   => Loading Basis Set <=

    Name: (AUG-CC-PVDZ AUX)
    Role: JKFIT
    Keyword: DF_BASIS_SCF
    atoms 1-2, 11-12  entry N          line   212 file /storage/home/hhive1/csargent30/data/miniconda3/envs/psi4/share/psi4/basis/aug-cc-pvdz-jkfit.gbs
    atoms 3-6, 13-16  entry H          line    70 file /storage/home/hhive1/csargent30/data/miniconda3/envs/psi4/share/psi4/basis/aug-cc-pvdz-jkfit.gbs
    atoms 7-10, 17-20 entry C          line   154 file /storage/home/hhive1/csargent30/data/miniconda3/envs/psi4/share/psi4/basis/aug-cc-pvdz-jkfit.gbs

  ==> Integral Setup <==

  ==> DiskDFJK: Density-Fitted J/K Matrices <==

    J tasked:                  Yes
    K tasked:                  Yes
    wK tasked:                  No
    OpenMP threads:              2
    Integrals threads:           2
    Memory [MiB]:             5006
    Algorithm:                Core
    Integral Cache:           LOAD
    Schwarz Cutoff:          1E-12
    Fitting Condition:       1E-10

   => Auxiliary Basis Set <=

  Basis Set: (AUG-CC-PVDZ AUX)
    Blend: AUG-CC-PVDZ-JKFIT
    Number of shells: 432
    Number of basis functions: 1288
    Number of Cartesian functions: 1492
    Spherical Harmonics?: true
    Max angular momentum: 3

  Minimum eigenvalue in the overlap matrix is 9.4898470893E-06.
  Reciprocal condition number of the overlap matrix is 7.4017696004E-07.
    Using symmetric orthogonalization.

  ==> Pre-Iterations <==

  SCF Guess: Superposition of Atomic Densities via on-the-fly atomic UHF (no occupation information).

   -------------------------
    Irrep   Nso     Nmo
   -------------------------
     A        348     348
   -------------------------
    Total     348     348
   -------------------------

  ==> Iterations <==

                           Total Energy        Delta E     RMS |[F,P]|

   @DF-RHF iter SAD:  -262.32523125959358   -2.62325e+02   0.00000e+00
   @DF-RHF iter   1:  -262.53940798387589   -2.14177e-01   1.11985e-03 DIIS
   @DF-RHF iter   2:  -262.62878837621258   -8.93804e-02   4.10664e-04 DIIS
   @DF-RHF iter   3:  -262.63862292078619   -9.83454e-03   1.28248e-04 DIIS
   @DF-RHF iter   4:  -262.63984767406322   -1.22475e-03   3.77599e-05 DIIS
   @DF-RHF iter   5:  -262.63993727452396   -8.96005e-05   7.55558e-06 DIIS
   @DF-RHF iter   6:  -262.63994382478381   -6.55026e-06   2.45264e-06 DIIS
   @DF-RHF iter   7:  -262.63994477715664   -9.52373e-07   6.40130e-07 DIIS
   @DF-RHF iter   8:  -262.63994485104473   -7.38881e-08   9.91693e-08 DIIS
   @DF-RHF iter   9:  -262.63994485303078   -1.98605e-09   1.88228e-08 DIIS
   @DF-RHF iter  10:  -262.63994485310133   -7.05427e-11   3.19151e-09 DIIS
   @DF-RHF iter  11:  -262.63994485310326   -1.93268e-12   5.22317e-10 DIIS
   @DF-RHF iter  12:  -262.63994485310371   -4.54747e-13   9.54306e-11 DIIS
  Energy and wave function converged.


  ==> Post-Iterations <==

    Orbital Energies [Eh]
    ---------------------

    Doubly Occupied:

       1A    -15.598072     2A    -15.598053     3A    -11.274239
       4A    -11.274194     5A    -11.272975     6A    -11.272969
       7A     -1.313347     8A     -1.224176     9A     -1.076803
      10A     -0.922662    11A     -0.919282    12A     -0.760637
      13A     -0.738402    14A     -0.706214    15A     -0.647687
      16A     -0.580711    17A     -0.574369    18A     -0.497113
      19A     -0.434288    20A     -0.415855    21A     -0.359924

    Virtual:

      22A      0.022459    23A      0.034497    24A      0.039527
      25A      0.040739    26A      0.041209    27A      0.048384
      28A      0.058591    29A      0.058873    30A      0.067113
      31A      0.079707    32A      0.085068    33A      0.099419
      34A      0.100948    35A      0.104017    36A      0.108540
      37A      0.108882    38A      0.114201    39A      0.114951
      40A      0.122521    41A      0.123776    42A      0.125322
      43A      0.125608    44A      0.128661    45A      0.130969
      46A      0.132889    47A      0.134172    48A      0.152127
      49A      0.153055    50A      0.158199    51A      0.159370
      52A      0.161084    53A      0.161326    54A      0.163914
      55A      0.175179    56A      0.176767    57A      0.186918
      58A      0.197828    59A      0.203908    60A      0.203927
      61A      0.206687    62A      0.212538    63A      0.222404
      64A      0.233639    65A      0.239465    66A      0.250517
      67A      0.255247    68A      0.267756    69A      0.270802
      70A      0.278056    71A      0.287812    72A      0.293207
      73A      0.295749    74A      0.302344    75A      0.314832
      76A      0.320457    77A      0.320664    78A      0.328182
      79A      0.331326    80A      0.344146    81A      0.355428
      82A      0.357908    83A      0.364661    84A      0.380523
      85A      0.382582    86A      0.385659    87A      0.398891
      88A      0.401297    89A      0.409895    90A      0.419295
      91A      0.424972    92A      0.425453    93A      0.433925
      94A      0.437212    95A      0.441956    96A      0.452092
      97A      0.460680    98A      0.461127    99A      0.471483
     100A      0.476109   101A      0.478843   102A      0.492140
     103A      0.504862   104A      0.507844   105A      0.514914
     106A      0.523790   107A      0.524547   108A      0.528668
     109A      0.535754   110A      0.554577   111A      0.557868
     112A      0.561536   113A      0.564518   114A      0.570535
     115A      0.581927   116A      0.587535   117A      0.591506
     118A      0.593799   119A      0.596033   120A      0.608929
     121A      0.615165   122A      0.620184   123A      0.636389
     124A      0.643517   125A      0.644321   126A      0.649378
     127A      0.651513   128A      0.679436   129A      0.685136
     130A      0.685339   131A      0.687758   132A      0.689932
     133A      0.690342   134A      0.694828   135A      0.703829
     136A      0.719910   137A      0.728415   138A      0.746558
     139A      0.746811   140A      0.754817   141A      0.766965
     142A      0.775705   143A      0.781406   144A      0.793655
     145A      0.799815   146A      0.802710   147A      0.811117
     148A      0.812000   149A      0.819016   150A      0.824776
     151A      0.831071   152A      0.847513   153A      0.848087
     154A      0.849208   155A      0.868629   156A      0.880544
     157A      0.886410   158A      0.888172   159A      0.894682
     160A      0.906127   161A      0.929136   162A      0.929272
     163A      0.939466   164A      0.947715   165A      0.949307
     166A      0.970803   167A      0.976959   168A      0.986661
     169A      0.996652   170A      0.998908   171A      1.013015
     172A      1.032442   173A      1.033370   174A      1.046953
     175A      1.051194   176A      1.076287   177A      1.089381
     178A      1.090302   179A      1.100445   180A      1.122199
     181A      1.124044   182A      1.130686   183A      1.134362
     184A      1.140289   185A      1.158740   186A      1.168612
     187A      1.170700   188A      1.173565   189A      1.192232
     190A      1.193265   191A      1.200498   192A      1.222340
     193A      1.235416   194A      1.238804   195A      1.251052
     196A      1.307581   197A      1.309674   198A      1.318286
     199A      1.326437   200A      1.329636   201A      1.331148
     202A      1.346833   203A      1.389237   204A      1.414282
     205A      1.448414   206A      1.451526   207A      1.455484
     208A      1.479157   209A      1.486137   210A      1.487230
     211A      1.488075   212A      1.499211   213A      1.502846
     214A      1.518252   215A      1.572686   216A      1.574192
     217A      1.587836   218A      1.635982   219A      1.640505
     220A      1.648219   221A      1.659265   222A      1.676552
     223A      1.698091   224A      1.716991   225A      1.746597
     226A      1.755104   227A      1.783762   228A      1.815727
     229A      1.893323   230A      1.916137   231A      1.964829
     232A      1.987674   233A      2.031202   234A      2.070252
     235A      2.091548   236A      2.101028   237A      2.102790
     238A      2.119468   239A      2.142953   240A      2.156701
     241A      2.159215   242A      2.163355   243A      2.190488
     244A      2.193301   245A      2.194885   246A      2.200380
     247A      2.202410   248A      2.227626   249A      2.234800
     250A      2.241228   251A      2.249685   252A      2.310040
     253A      2.312761   254A      2.319573   255A      2.355229
     256A      2.384831   257A      2.419235   258A      2.430957
     259A      2.435438   260A      2.438191   261A      2.438977
     262A      2.472702   263A      2.486749   264A      2.498346
     265A      2.519379   266A      2.522395   267A      2.525093
     268A      2.546021   269A      2.568353   270A      2.584766
     271A      2.592398   272A      2.606266   273A      2.625998
     274A      2.665224   275A      2.675409   276A      2.686395
     277A      2.713985   278A      2.716923   279A      2.718591
     280A      2.726678   281A      2.767961   282A      2.844014
     283A      2.865761   284A      2.904062   285A      2.939196
     286A      2.947253   287A      2.955778   288A      2.973368
     289A      3.001855   290A      3.017872   291A      3.032186
     292A      3.058357   293A      3.065255   294A      3.094137
     295A      3.113894   296A      3.220316   297A      3.245755
     298A      3.255980   299A      3.284880   300A      3.289709
     301A      3.321988   302A      3.337769   303A      3.340514
     304A      3.348686   305A      3.351410   306A      3.366140
     307A      3.412657   308A      3.413367   309A      3.470812
     310A      3.502013   311A      3.514920   312A      3.521423
     313A      3.590655   314A      3.604497   315A      3.605704
     316A      3.627769   317A      3.700544   318A      3.818983
     319A      3.830747   320A      3.941029   321A      3.969155
     322A      3.977236   323A      4.011461   324A      4.194817
     325A      4.242309   326A      4.253485   327A      4.442047
     328A      4.546888   329A      4.579337   330A      4.867699
     331A      4.976202   332A      5.057912   333A      5.261770
     334A      5.316598   335A      5.630257   336A      5.691383
     337A      5.827208   338A      5.952691   339A      6.283887
     340A      6.306948   341A      6.453824   342A      6.631259
     343A     18.125776   344A     18.208038   345A     19.017633
     346A     19.343058   347A     25.287122   348A     25.374841

    Final Occupation by Irrep:
              A
    DOCC [    21 ]

  @DF-RHF Final Energy:  -262.63994485310371

   => Energetics <=

    Nuclear Repulsion Energy =            212.5517311104853491
    One-Electron Energy =                -775.4594096373105003
    Two-Electron Energy =                 300.2677336737214659
    Total Energy =                       -262.6399448531037137

Computation Completed


Properties will be evaluated at   0.000000,   0.000000,   0.000000 [a0]

Properties computed using the SCF density matrix

  Nuclear Dipole Moment: [e a0]
     X:    55.0814      Y:    41.1737      Z:    17.9034

  Electronic Dipole Moment: [e a0]
     X:   -55.0814      Y:   -41.1737      Z:   -17.9034

  Dipole Moment: [e a0]
     X:    -0.0000      Y:     0.0000      Z:    -0.0000     Total:     0.0000

  Dipole Moment: [D]
     X:    -0.0000      Y:     0.0000      Z:    -0.0000     Total:     0.0000


*** tstop() called on atl1-1-01-015-6-r.pace.gatech.edu at Mon Nov 29 16:11:00 2021
Module time:
	user time   =      14.66 seconds =       0.24 minutes
	system time =       0.48 seconds =       0.01 minutes
	total time  =          9 seconds =       0.15 minutes
Total time:
	user time   =      39.04 seconds =       0.65 minutes
	system time =       1.43 seconds =       0.02 minutes
	total time  =         22 seconds =       0.37 minutes

  //>>>>>>>>>>>>>>>>>>>>>>>>>>>>>>>>>>>//
  //            Monomer B HF           //
  //<<<<<<<<<<<<<<<<<<<<<<<<<<<<<<<<<<<//


*** tstart() called on atl1-1-01-015-6-r.pace.gatech.edu
*** at Mon Nov 29 16:11:00 2021

   => Loading Basis Set <=

    Name: AUG-CC-PVDZ
    Role: ORBITAL
    Keyword: BASIS
    atoms 1-2, 11-12  entry N          line   218 file /storage/home/hhive1/csargent30/data/miniconda3/envs/psi4/share/psi4/basis/aug-cc-pvdz.gbs
    atoms 3-6, 13-16  entry H          line    40 file /storage/home/hhive1/csargent30/data/miniconda3/envs/psi4/share/psi4/basis/aug-cc-pvdz.gbs
    atoms 7-10, 17-20 entry C          line   182 file /storage/home/hhive1/csargent30/data/miniconda3/envs/psi4/share/psi4/basis/aug-cc-pvdz.gbs


         ---------------------------------------------------------
                                   SCF
               by Justin Turney, Rob Parrish, Andy Simmonett
                          and Daniel G. A. Smith
                              RHF Reference
                        2 Threads,   6675 MiB Core
         ---------------------------------------------------------

  ==> Geometry <==

    Molecular point group: c1
    Full point group: C1

    Geometry (in Bohr), charge = 0, multiplicity = 1:

       Center              X                  Y                   Z               Mass
    ------------   -----------------  -----------------  -----------------  -----------------
      Gh(N)          -1.330847580000     0.980326580000     0.426270370000    14.003074004430
      Gh(N)           3.953773330000     0.980326580000     0.426270370000    14.003074004430
      Gh(H)           3.567136740000     4.352185690000    -0.942309730000     1.007825032230
      Gh(H)          -0.944210980000     4.352185690000    -0.942309730000     1.007825032230
      Gh(H)          -0.944210980000    -2.391532530000     1.794850470000     1.007825032230
      Gh(H)           3.567136740000    -2.391532530000     1.794850470000     1.007825032230
      Gh(C)           2.622925760000     2.940979740000    -0.426270370000    12.000000000000
      Gh(C)           0.000000000000     2.940979740000    -0.426270370000    12.000000000000
      Gh(C)           0.000000000000    -0.980326580000     1.278811120000    12.000000000000
      Gh(C)           2.622925760000    -0.980326580000     1.278811120000    12.000000000000
         N          -36.575751600000   -10.074949200000   -13.682802820000    14.003074004430
         N          -31.291130690000   -10.074949200000   -13.682802820000    14.003074004430
         H          -31.677767280000    -6.703090090000   -15.051382920000     1.007825032230
         H          -36.189115000000    -6.703090090000   -15.051382920000     1.007825032230
         H          -36.189115000000   -13.446808310000   -12.314222720000     1.007825032230
         H          -31.677767280000   -13.446808310000   -12.314222720000     1.007825032230
         C          -32.621978260000    -8.114296040000   -14.535343570000    12.000000000000
         C          -35.244904020000    -8.114296040000   -14.535343570000    12.000000000000
         C          -35.244904020000   -12.035602360000   -12.830262080000    12.000000000000
         C          -32.621978260000   -12.035602360000   -12.830262080000    12.000000000000

  Running in c1 symmetry.

  Rotational constants: A =      0.08765  B =      0.00052  C =      0.00052 [cm^-1]
  Rotational constants: A =   2627.67152  B =     15.54889  C =     15.48757 [MHz]
  Nuclear repulsion =  212.551731110485321

  Charge       = 0
  Multiplicity = 1
  Electrons    = 42
  Nalpha       = 21
  Nbeta        = 21

  ==> Algorithm <==

  SCF Algorithm Type is DF.
  DIIS enabled.
  MOM disabled.
  Fractional occupation disabled.
  Guess Type is SAD.
  Energy threshold   = 1.00e-10
  Density threshold  = 1.00e-10
  Integral threshold = 1.00e-12

  ==> Primary Basis <==

  Basis Set: AUG-CC-PVDZ
    Blend: AUG-CC-PVDZ
    Number of shells: 148
    Number of basis functions: 348
    Number of Cartesian functions: 372
    Spherical Harmonics?: true
    Max angular momentum: 2

   => Loading Basis Set <=

    Name: (AUG-CC-PVDZ AUX)
    Role: JKFIT
    Keyword: DF_BASIS_SCF
    atoms 1-2, 11-12  entry N          line   212 file /storage/home/hhive1/csargent30/data/miniconda3/envs/psi4/share/psi4/basis/aug-cc-pvdz-jkfit.gbs
    atoms 3-6, 13-16  entry H          line    70 file /storage/home/hhive1/csargent30/data/miniconda3/envs/psi4/share/psi4/basis/aug-cc-pvdz-jkfit.gbs
    atoms 7-10, 17-20 entry C          line   154 file /storage/home/hhive1/csargent30/data/miniconda3/envs/psi4/share/psi4/basis/aug-cc-pvdz-jkfit.gbs

  ==> Integral Setup <==

  ==> DiskDFJK: Density-Fitted J/K Matrices <==

    J tasked:                  Yes
    K tasked:                  Yes
    wK tasked:                  No
    OpenMP threads:              2
    Integrals threads:           2
    Memory [MiB]:             5006
    Algorithm:                Core
    Integral Cache:           LOAD
    Schwarz Cutoff:          1E-12
    Fitting Condition:       1E-10

   => Auxiliary Basis Set <=

  Basis Set: (AUG-CC-PVDZ AUX)
    Blend: AUG-CC-PVDZ-JKFIT
    Number of shells: 432
    Number of basis functions: 1288
    Number of Cartesian functions: 1492
    Spherical Harmonics?: true
    Max angular momentum: 3

  Minimum eigenvalue in the overlap matrix is 9.4898470893E-06.
  Reciprocal condition number of the overlap matrix is 7.4017696004E-07.
    Using symmetric orthogonalization.

  ==> Pre-Iterations <==

  SCF Guess: Superposition of Atomic Densities via on-the-fly atomic UHF (no occupation information).

   -------------------------
    Irrep   Nso     Nmo
   -------------------------
     A        348     348
   -------------------------
    Total     348     348
   -------------------------

  ==> Iterations <==

                           Total Energy        Delta E     RMS |[F,P]|

   @DF-RHF iter SAD:  -262.32523125864481   -2.62325e+02   0.00000e+00
   @DF-RHF iter   1:  -262.53940798283941   -2.14177e-01   1.11985e-03 DIIS
   @DF-RHF iter   2:  -262.62878837518252   -8.93804e-02   4.10664e-04 DIIS
   @DF-RHF iter   3:  -262.63862291975681   -9.83454e-03   1.28248e-04 DIIS
   @DF-RHF iter   4:  -262.63984767303305   -1.22475e-03   3.77599e-05 DIIS
   @DF-RHF iter   5:  -262.63993727349532   -8.96005e-05   7.55558e-06 DIIS
   @DF-RHF iter   6:  -262.63994382375461   -6.55026e-06   2.45264e-06 DIIS
   @DF-RHF iter   7:  -262.63994477612817   -9.52374e-07   6.40130e-07 DIIS
   @DF-RHF iter   8:  -262.63994485001626   -7.38881e-08   9.91693e-08 DIIS
   @DF-RHF iter   9:  -262.63994485200146   -1.98520e-09   1.88228e-08 DIIS
   @DF-RHF iter  10:  -262.63994485207286   -7.13953e-11   3.19151e-09 DIIS
   @DF-RHF iter  11:  -262.63994485207479   -1.93268e-12   5.22318e-10 DIIS
   @DF-RHF iter  12:  -262.63994485207456    2.27374e-13   9.54447e-11 DIIS
  Energy and wave function converged.


  ==> Post-Iterations <==

    Orbital Energies [Eh]
    ---------------------

    Doubly Occupied:

       1A    -15.598072     2A    -15.598053     3A    -11.274239
       4A    -11.274194     5A    -11.272975     6A    -11.272969
       7A     -1.313347     8A     -1.224176     9A     -1.076803
      10A     -0.922662    11A     -0.919282    12A     -0.760637
      13A     -0.738402    14A     -0.706214    15A     -0.647687
      16A     -0.580711    17A     -0.574369    18A     -0.497113
      19A     -0.434288    20A     -0.415855    21A     -0.359924

    Virtual:

      22A      0.022459    23A      0.034497    24A      0.039527
      25A      0.040739    26A      0.041209    27A      0.048384
      28A      0.058591    29A      0.058873    30A      0.067113
      31A      0.079707    32A      0.085068    33A      0.099419
      34A      0.100948    35A      0.104017    36A      0.108540
      37A      0.108882    38A      0.114201    39A      0.114951
      40A      0.122521    41A      0.123776    42A      0.125322
      43A      0.125608    44A      0.128661    45A      0.130969
      46A      0.132889    47A      0.134172    48A      0.152127
      49A      0.153055    50A      0.158199    51A      0.159370
      52A      0.161084    53A      0.161326    54A      0.163914
      55A      0.175179    56A      0.176767    57A      0.186918
      58A      0.197828    59A      0.203908    60A      0.203927
      61A      0.206687    62A      0.212538    63A      0.222404
      64A      0.233639    65A      0.239465    66A      0.250517
      67A      0.255247    68A      0.267756    69A      0.270802
      70A      0.278056    71A      0.287812    72A      0.293207
      73A      0.295749    74A      0.302344    75A      0.314832
      76A      0.320457    77A      0.320664    78A      0.328182
      79A      0.331326    80A      0.344146    81A      0.355428
      82A      0.357908    83A      0.364661    84A      0.380523
      85A      0.382583    86A      0.385659    87A      0.398891
      88A      0.401297    89A      0.409895    90A      0.419295
      91A      0.424972    92A      0.425453    93A      0.433925
      94A      0.437212    95A      0.441956    96A      0.452092
      97A      0.460680    98A      0.461127    99A      0.471483
     100A      0.476109   101A      0.478843   102A      0.492140
     103A      0.504862   104A      0.507844   105A      0.514914
     106A      0.523790   107A      0.524547   108A      0.528668
     109A      0.535754   110A      0.554577   111A      0.557868
     112A      0.561536   113A      0.564518   114A      0.570535
     115A      0.581927   116A      0.587535   117A      0.591506
     118A      0.593799   119A      0.596033   120A      0.608929
     121A      0.615165   122A      0.620184   123A      0.636389
     124A      0.643517   125A      0.644321   126A      0.649378
     127A      0.651513   128A      0.679436   129A      0.685136
     130A      0.685339   131A      0.687758   132A      0.689932
     133A      0.690342   134A      0.694828   135A      0.703830
     136A      0.719910   137A      0.728415   138A      0.746558
     139A      0.746811   140A      0.754817   141A      0.766965
     142A      0.775705   143A      0.781406   144A      0.793655
     145A      0.799815   146A      0.802710   147A      0.811117
     148A      0.812000   149A      0.819016   150A      0.824776
     151A      0.831071   152A      0.847513   153A      0.848087
     154A      0.849208   155A      0.868629   156A      0.880544
     157A      0.886410   158A      0.888172   159A      0.894682
     160A      0.906127   161A      0.929136   162A      0.929272
     163A      0.939466   164A      0.947715   165A      0.949307
     166A      0.970803   167A      0.976959   168A      0.986661
     169A      0.996652   170A      0.998908   171A      1.013015
     172A      1.032442   173A      1.033370   174A      1.046953
     175A      1.051194   176A      1.076287   177A      1.089381
     178A      1.090302   179A      1.100445   180A      1.122199
     181A      1.124044   182A      1.130686   183A      1.134362
     184A      1.140289   185A      1.158740   186A      1.168612
     187A      1.170700   188A      1.173565   189A      1.192232
     190A      1.193265   191A      1.200498   192A      1.222340
     193A      1.235416   194A      1.238804   195A      1.251052
     196A      1.307581   197A      1.309674   198A      1.318286
     199A      1.326437   200A      1.329636   201A      1.331148
     202A      1.346833   203A      1.389237   204A      1.414282
     205A      1.448414   206A      1.451526   207A      1.455484
     208A      1.479157   209A      1.486137   210A      1.487230
     211A      1.488075   212A      1.499211   213A      1.502846
     214A      1.518252   215A      1.572686   216A      1.574192
     217A      1.587836   218A      1.635982   219A      1.640505
     220A      1.648219   221A      1.659265   222A      1.676552
     223A      1.698091   224A      1.716991   225A      1.746597
     226A      1.755104   227A      1.783762   228A      1.815727
     229A      1.893323   230A      1.916137   231A      1.964829
     232A      1.987674   233A      2.031202   234A      2.070252
     235A      2.091548   236A      2.101028   237A      2.102790
     238A      2.119468   239A      2.142953   240A      2.156701
     241A      2.159215   242A      2.163355   243A      2.190488
     244A      2.193301   245A      2.194885   246A      2.200380
     247A      2.202410   248A      2.227626   249A      2.234800
     250A      2.241228   251A      2.249685   252A      2.310040
     253A      2.312761   254A      2.319573   255A      2.355229
     256A      2.384831   257A      2.419235   258A      2.430957
     259A      2.435438   260A      2.438191   261A      2.438977
     262A      2.472702   263A      2.486749   264A      2.498346
     265A      2.519379   266A      2.522395   267A      2.525093
     268A      2.546021   269A      2.568353   270A      2.584766
     271A      2.592398   272A      2.606266   273A      2.625998
     274A      2.665224   275A      2.675409   276A      2.686395
     277A      2.713985   278A      2.716923   279A      2.718591
     280A      2.726678   281A      2.767961   282A      2.844014
     283A      2.865761   284A      2.904062   285A      2.939196
     286A      2.947253   287A      2.955778   288A      2.973368
     289A      3.001855   290A      3.017872   291A      3.032186
     292A      3.058357   293A      3.065255   294A      3.094137
     295A      3.113894   296A      3.220316   297A      3.245755
     298A      3.255980   299A      3.284880   300A      3.289709
     301A      3.321988   302A      3.337769   303A      3.340514
     304A      3.348686   305A      3.351410   306A      3.366140
     307A      3.412657   308A      3.413367   309A      3.470812
     310A      3.502013   311A      3.514920   312A      3.521423
     313A      3.590655   314A      3.604497   315A      3.605704
     316A      3.627769   317A      3.700544   318A      3.818983
     319A      3.830747   320A      3.941029   321A      3.969155
     322A      3.977236   323A      4.011461   324A      4.194817
     325A      4.242309   326A      4.253485   327A      4.442047
     328A      4.546888   329A      4.579337   330A      4.867699
     331A      4.976202   332A      5.057912   333A      5.261770
     334A      5.316598   335A      5.630257   336A      5.691383
     337A      5.827208   338A      5.952691   339A      6.283887
     340A      6.306948   341A      6.453824   342A      6.631259
     343A     18.125776   344A     18.208038   345A     19.017633
     346A     19.343058   347A     25.287122   348A     25.374841

    Final Occupation by Irrep:
              A
    DOCC [    21 ]

  @DF-RHF Final Energy:  -262.63994485207456

   => Energetics <=

    Nuclear Repulsion Energy =            212.5517311104853206
    One-Electron Energy =                -775.4594096374416949
    Two-Electron Energy =                 300.2677336748818107
    Total Energy =                       -262.6399448520745636

Computation Completed


Properties will be evaluated at   0.000000,   0.000000,   0.000000 [a0]

Properties computed using the SCF density matrix

  Nuclear Dipole Moment: [e a0]
     X: -1425.2045      Y:  -423.1479      Z:  -574.6777

  Electronic Dipole Moment: [e a0]
     X:  1425.2045      Y:   423.1479      Z:   574.6777

  Dipole Moment: [e a0]
     X:     0.0000      Y:    -0.0000      Z:     0.0000     Total:     0.0000

  Dipole Moment: [D]
     X:     0.0000      Y:    -0.0000      Z:     0.0000     Total:     0.0000


*** tstop() called on atl1-1-01-015-6-r.pace.gatech.edu at Mon Nov 29 16:11:08 2021
Module time:
	user time   =      14.72 seconds =       0.25 minutes
	system time =       0.46 seconds =       0.01 minutes
	total time  =          8 seconds =       0.13 minutes
Total time:
	user time   =      53.77 seconds =       0.90 minutes
	system time =       1.90 seconds =       0.03 minutes
	total time  =         30 seconds =       0.50 minutes
  Constructing Basis Sets for SAPT...

   => Loading Basis Set <=

    Name: (AUG-CC-PVDZ AUX)
    Role: RIFIT
    Keyword: DF_BASIS_SAPT
    atoms 1-2, 11-12  entry N          line   158 file /storage/home/hhive1/csargent30/data/miniconda3/envs/psi4/share/psi4/basis/aug-cc-pvdz-ri.gbs
    atoms 3-6, 13-16  entry H          line    30 file /storage/home/hhive1/csargent30/data/miniconda3/envs/psi4/share/psi4/basis/aug-cc-pvdz-ri.gbs
    atoms 7-10, 17-20 entry C          line   112 file /storage/home/hhive1/csargent30/data/miniconda3/envs/psi4/share/psi4/basis/aug-cc-pvdz-ri.gbs


  //>>>>>>>>>>>>>>>>>>>>>>>>>>>>>>>>>>>//
  //               SAPT0               //
  //<<<<<<<<<<<<<<<<<<<<<<<<<<<<<<<<<<<//


*** tstart() called on atl1-1-01-015-6-r.pace.gatech.edu
*** at Mon Nov 29 16:11:08 2021

        SAPT0
    Ed Hohenstein
     6 June 2009

      Orbital Information
  --------------------------
    NSO        =       348
    NMO        =       348
    NRI        =      1048
    NOCC A     =        21
    NOCC B     =        21
    FOCC A     =         6
    FOCC B     =         6
    NVIR A     =       327
    NVIR B     =       327

    Elst10,r            =     0.000002389763 [Eh]
    Exch10              =     0.000000000000 [Eh]
    Exch10 (S^2)        =     0.000000000000 [Eh]

    Iter     Energy [mEh]          dE [mEh]         Residual      Time [s]
       1      -0.00000178       0.000001775       0.015185228             0
       2      -0.00000158      -0.000000194       0.003587669             1
       3      -0.00000171       0.000000124       0.001576993             1
       4      -0.00000174       0.000000039       0.000379645             1
       5      -0.00000174      -0.000000004       0.000211001             2
       6      -0.00000174      -0.000000003       0.000084402             2
       7      -0.00000174       0.000000000       0.000036586             2
       8      -0.00000174       0.000000000       0.000011863             3
       9      -0.00000174      -0.000000000       0.000003738             3
      10      -0.00000174      -0.000000000       0.000001101             4
      11      -0.00000174       0.000000000       0.000000446             4

    CHF Iterations converged


    Iter     Energy [mEh]          dE [mEh]         Residual      Time [s]
       1      -0.00000178       0.000001775       0.015185227             0
       2      -0.00000158      -0.000000194       0.003587669             1
       3      -0.00000171       0.000000124       0.001576993             1
       4      -0.00000174       0.000000039       0.000379645             1
       5      -0.00000174      -0.000000004       0.000211001             2
       6      -0.00000174      -0.000000003       0.000084403             2
       7      -0.00000174       0.000000000       0.000036586             2
       8      -0.00000174       0.000000000       0.000011863             3
       9      -0.00000174      -0.000000000       0.000003738             3
      10      -0.00000174      -0.000000000       0.000001101             4
      11      -0.00000174       0.000000000       0.000000446             4

    CHF Iterations converged

    Ind20,r (A<-B)      =    -0.000000001739 [Eh]
    Ind20,r (B<-A)      =    -0.000000001739 [Eh]
    Ind20,r             =    -0.000000003479 [Eh]
    Exch-Ind20,r (A<-B) =     0.000000000000 [Eh]
    Exch-Ind20,r (B<-A) =     0.000000000000 [Eh]
    Exch-Ind20,r        =     0.000000000000 [Eh]
    Disp20              =    -0.000000461936 [Eh]
    Disp20 (SS)         =    -0.000000230968 [Eh]
    Disp20 (OS)         =    -0.000000230968 [Eh]
    Exch-Disp20         =     0.000000000000 [Eh]
    Exch-Disp20 (SS)    =     0.000000000000 [Eh]
    Exch-Disp20 (OS)    =     0.000000000000 [Eh]

    SAPT Results
  --------------------------------------------------------------------------------------------------------
    Electrostatics                  0.00238976 [mEh]       0.00149960 [kcal/mol]       0.00627432 [kJ/mol]
      Elst10,r                      0.00238976 [mEh]       0.00149960 [kcal/mol]       0.00627432 [kJ/mol]

    Exchange                        0.00000000 [mEh]       0.00000000 [kcal/mol]       0.00000000 [kJ/mol]
      Exch10                        0.00000000 [mEh]       0.00000000 [kcal/mol]       0.00000000 [kJ/mol]
      Exch10(S^2)                   0.00000000 [mEh]       0.00000000 [kcal/mol]       0.00000000 [kJ/mol]

    Induction                       0.00001918 [mEh]       0.00001204 [kcal/mol]       0.00005036 [kJ/mol]
      Ind20,r                      -0.00000348 [mEh]      -0.00000218 [kcal/mol]      -0.00000913 [kJ/mol]
      Exch-Ind20,r                  0.00000000 [mEh]       0.00000000 [kcal/mol]       0.00000000 [kJ/mol]
      delta HF,r (2)                0.00002266 [mEh]       0.00001422 [kcal/mol]       0.00005950 [kJ/mol]

    Dispersion                     -0.00046194 [mEh]      -0.00028987 [kcal/mol]      -0.00121281 [kJ/mol]
      Disp20                       -0.00046194 [mEh]      -0.00028987 [kcal/mol]      -0.00121281 [kJ/mol]
      Exch-Disp20                   0.00000000 [mEh]       0.00000000 [kcal/mol]       0.00000000 [kJ/mol]
      Disp20 (SS)                  -0.00023097 [mEh]      -0.00014493 [kcal/mol]      -0.00060641 [kJ/mol]
      Disp20 (OS)                  -0.00023097 [mEh]      -0.00014493 [kcal/mol]      -0.00060641 [kJ/mol]
      Exch-Disp20 (SS)              0.00000000 [mEh]       0.00000000 [kcal/mol]       0.00000000 [kJ/mol]
      Exch-Disp20 (OS)              0.00000000 [mEh]       0.00000000 [kcal/mol]       0.00000000 [kJ/mol]

  Total HF                          0.00240895 [mEh]       0.00151164 [kcal/mol]       0.00632469 [kJ/mol]
  Total SAPT0                       0.00194701 [mEh]       0.00122177 [kcal/mol]       0.00511187 [kJ/mol]

  Special recipe for scaled SAPT0 (see Manual):
    Electrostatics sSAPT0           0.00238976 [mEh]       0.00149960 [kcal/mol]       0.00627432 [kJ/mol]
    Exchange sSAPT0                 0.00000000 [mEh]       0.00000000 [kcal/mol]       0.00000000 [kJ/mol]
    Induction sSAPT0                0.00001918 [mEh]       0.00001204 [kcal/mol]       0.00005036 [kJ/mol]
    Dispersion sSAPT0              -0.00046194 [mEh]      -0.00028987 [kcal/mol]      -0.00121281 [kJ/mol]
  Total sSAPT0                      0.00194701 [mEh]       0.00122177 [kcal/mol]       0.00511187 [kJ/mol]
  --------------------------------------------------------------------------------------------------------

*** tstop() called on atl1-1-01-015-6-r.pace.gatech.edu at Mon Nov 29 16:11:34 2021
Module time:
	user time   =      38.71 seconds =       0.65 minutes
	system time =       8.87 seconds =       0.15 minutes
	total time  =         26 seconds =       0.43 minutes
Total time:
	user time   =      92.72 seconds =       1.55 minutes
	system time =      10.78 seconds =       0.18 minutes
	total time  =         56 seconds =       0.93 minutes


Warning! sapt0 does not have an associated derived wavefunction.The returned wavefunction is the dimer SCF wavefunction.


    Psi4 stopped on: Monday, 29 November 2021 04:11PM
    Psi4 wall time for execution: 0:00:55.96

*** Psi4 exiting successfully. Buy a developer a beer!
