
    -----------------------------------------------------------------------
          Psi4: An Open-Source Ab Initio Electronic Structure Package
                               Psi4 1.4.1 release

                         Git: Rev {HEAD} cd00f19


    D. G. A. Smith, L. A. Burns, A. C. Simmonett, R. M. Parrish,
    M. C. Schieber, R. Galvelis, P. Kraus, H. Kruse, R. Di Remigio,
    A. Alenaizan, A. M. James, S. Lehtola, J. P. Misiewicz, M. Scheurer,
    R. A. Shaw, J. B. Schriber, Y. Xie, Z. L. Glick, D. A. Sirianni,
    J. S. O'Brien, J. M. Waldrop, A. Kumar, E. G. Hohenstein,
    B. P. Pritchard, B. R. Brooks, H. F. Schaefer III, A. Yu. Sokolov,
    K. Patkowski, A. E. DePrince III, U. Bozkaya, R. A. King,
    F. A. Evangelista, J. M. Turney, T. D. Crawford, C. D. Sherrill,
    J. Chem. Phys. 152(18) 184108 (2020). https://doi.org/10.1063/5.0006002

                            Additional Code Authors
    E. T. Seidl, C. L. Janssen, E. F. Valeev, M. L. Leininger,
    J. F. Gonthier, R. M. Richard, H. R. McAlexander, M. Saitow, X. Wang,
    P. Verma, and M. H. Lechner

             Previous Authors, Complete List of Code Contributors,
                       and Citations for Specific Modules
    https://github.com/psi4/psi4/blob/master/codemeta.json
    https://github.com/psi4/psi4/graphs/contributors
    http://psicode.org/psi4manual/master/introduction.html#citing-psifour

    -----------------------------------------------------------------------


    Psi4 started on: Monday, 29 November 2021 04:10PM

    Process ID: 429447
    Host:       atl1-1-01-013-7-l.pace.gatech.edu
    PSIDATADIR: /storage/home/hhive1/csargent30/data/miniconda3/envs/psi4/share/psi4
    Memory:     500.0 MiB
    Threads:    2

  ==> Input File <==

--------------------------------------------------------------------------
# PSI4 file produced by CrystaLattE

# Generated from:               pyrazine.xyz
# Psithon input for N-mer:      2mer-0+24
# Number of atoms per monomer:  [10, 10]
# Number of replicas:           8
# COM priority:                 1.433611862342e-04
# Minimum COM separations:      10.111
# Separation priority:          6.926405103110e-04
# Minimum monomer separations:  5.981
# Cutoff priority:              6.128354101515e-05
# Nuclear repulsion energy:     518.0100313261065

memory 7 GB

molecule Dimer_0_24 {
  N           -1.33084758       0.98032658       0.42627037
  N            3.95377333       0.98032658       0.42627037
  H            3.56713674       4.35218569      -0.94230973
  H           -0.94421098       4.35218569      -0.94230973
  H           -0.94421098      -2.39153253       1.79485047
  H            3.56713674      -2.39153253       1.79485047
  C            2.62292576       2.94097974      -0.42627037
  C            0.00000000       2.94097974      -0.42627037
  C            0.00000000      -0.98032658       1.27881112
  C            2.62292576      -0.98032658       1.27881112
--
  N          -10.14207358     -15.60258709      -3.10099793
  N           -4.85745267     -15.60258709      -3.10099793
  H           -9.75543698     -18.97444620      -4.46957803
  H           -9.75543698     -12.23072798      -1.73241783
  H           -5.24408927     -18.97444620      -4.46957803
  H           -5.24408927     -12.23072798      -1.73241783
  C           -8.81122601     -17.56324025      -3.95353867
  C           -8.81122601     -13.64193393      -2.24845718
  C           -6.18830025     -17.56324025      -3.95353867
  C           -6.18830025     -13.64193393      -2.24845718
units = au
no_com
no_reorient
}

set {
  e_convergence 10
  d_convergence 10
  scf_type df
  mp2_type df
  cc_type df
  freeze_core true
}

energy('sapt0/aug-cc-pvdz')

--------------------------------------------------------------------------

  Memory set to   6.519 GiB by Python driver.

Scratch directory: /tmp/

Scratch directory: /tmp/

  //>>>>>>>>>>>>>>>>>>>>>>>>>>>>>>>>>>>//
  //              Dimer HF             //
  //<<<<<<<<<<<<<<<<<<<<<<<<<<<<<<<<<<<//


*** tstart() called on atl1-1-01-013-7-l.pace.gatech.edu
*** at Mon Nov 29 16:10:45 2021

   => Loading Basis Set <=

    Name: AUG-CC-PVDZ
    Role: ORBITAL
    Keyword: BASIS
    atoms 1-2, 11-12  entry N          line   218 file /storage/home/hhive1/csargent30/data/miniconda3/envs/psi4/share/psi4/basis/aug-cc-pvdz.gbs
    atoms 3-6, 13-16  entry H          line    40 file /storage/home/hhive1/csargent30/data/miniconda3/envs/psi4/share/psi4/basis/aug-cc-pvdz.gbs
    atoms 7-10, 17-20 entry C          line   182 file /storage/home/hhive1/csargent30/data/miniconda3/envs/psi4/share/psi4/basis/aug-cc-pvdz.gbs


         ---------------------------------------------------------
                                   SCF
               by Justin Turney, Rob Parrish, Andy Simmonett
                          and Daniel G. A. Smith
                              RHF Reference
                        2 Threads,   6675 MiB Core
         ---------------------------------------------------------

  ==> Geometry <==

    Molecular point group: c1
    Full point group: C1

    Geometry (in Bohr), charge = 0, multiplicity = 1:

       Center              X                  Y                   Z               Mass
    ------------   -----------------  -----------------  -----------------  -----------------
         N           -1.330847580000     0.980326580000     0.426270370000    14.003074004430
         N            3.953773330000     0.980326580000     0.426270370000    14.003074004430
         H            3.567136740000     4.352185690000    -0.942309730000     1.007825032230
         H           -0.944210980000     4.352185690000    -0.942309730000     1.007825032230
         H           -0.944210980000    -2.391532530000     1.794850470000     1.007825032230
         H            3.567136740000    -2.391532530000     1.794850470000     1.007825032230
         C            2.622925760000     2.940979740000    -0.426270370000    12.000000000000
         C            0.000000000000     2.940979740000    -0.426270370000    12.000000000000
         C            0.000000000000    -0.980326580000     1.278811120000    12.000000000000
         C            2.622925760000    -0.980326580000     1.278811120000    12.000000000000
         N          -10.142073580000   -15.602587090000    -3.100997930000    14.003074004430
         N           -4.857452670000   -15.602587090000    -3.100997930000    14.003074004430
         H           -9.755436980000   -18.974446200000    -4.469578030000     1.007825032230
         H           -9.755436980000   -12.230727980000    -1.732417830000     1.007825032230
         H           -5.244089270000   -18.974446200000    -4.469578030000     1.007825032230
         H           -5.244089270000   -12.230727980000    -1.732417830000     1.007825032230
         C           -8.811226010000   -17.563240250000    -3.953538670000    12.000000000000
         C           -8.811226010000   -13.641933930000    -2.248457180000    12.000000000000
         C           -6.188300250000   -17.563240250000    -3.953538670000    12.000000000000
         C           -6.188300250000   -13.641933930000    -2.248457180000    12.000000000000

  Running in c1 symmetry.

  Rotational constants: A =      0.08407  B =      0.00236  C =      0.00231 [cm^-1]
  Rotational constants: A =   2520.38810  B =     70.74336  C =     69.33749 [MHz]
  Nuclear repulsion =  518.010031347077529

  Charge       = 0
  Multiplicity = 1
  Electrons    = 84
  Nalpha       = 42
  Nbeta        = 42

  ==> Algorithm <==

  SCF Algorithm Type is DF.
  DIIS enabled.
  MOM disabled.
  Fractional occupation disabled.
  Guess Type is SAD.
  Energy threshold   = 1.00e-10
  Density threshold  = 1.00e-10
  Integral threshold = 1.00e-12

  ==> Primary Basis <==

  Basis Set: AUG-CC-PVDZ
    Blend: AUG-CC-PVDZ
    Number of shells: 148
    Number of basis functions: 348
    Number of Cartesian functions: 372
    Spherical Harmonics?: true
    Max angular momentum: 2

   => Loading Basis Set <=

    Name: (AUG-CC-PVDZ AUX)
    Role: JKFIT
    Keyword: DF_BASIS_SCF
    atoms 1-2, 11-12  entry N          line   212 file /storage/home/hhive1/csargent30/data/miniconda3/envs/psi4/share/psi4/basis/aug-cc-pvdz-jkfit.gbs
    atoms 3-6, 13-16  entry H          line    70 file /storage/home/hhive1/csargent30/data/miniconda3/envs/psi4/share/psi4/basis/aug-cc-pvdz-jkfit.gbs
    atoms 7-10, 17-20 entry C          line   154 file /storage/home/hhive1/csargent30/data/miniconda3/envs/psi4/share/psi4/basis/aug-cc-pvdz-jkfit.gbs

  ==> Integral Setup <==

  ==> DiskDFJK: Density-Fitted J/K Matrices <==

    J tasked:                  Yes
    K tasked:                  Yes
    wK tasked:                  No
    OpenMP threads:              2
    Integrals threads:           2
    Memory [MiB]:             5006
    Algorithm:                Core
    Integral Cache:           SAVE
    Schwarz Cutoff:          1E-12
    Fitting Condition:       1E-10

   => Auxiliary Basis Set <=

  Basis Set: (AUG-CC-PVDZ AUX)
    Blend: AUG-CC-PVDZ-JKFIT
    Number of shells: 432
    Number of basis functions: 1288
    Number of Cartesian functions: 1492
    Spherical Harmonics?: true
    Max angular momentum: 3

  Minimum eigenvalue in the overlap matrix is 9.1266846185E-06.
  Reciprocal condition number of the overlap matrix is 7.1116340395E-07.
    Using symmetric orthogonalization.

  ==> Pre-Iterations <==

  SCF Guess: Superposition of Atomic Densities via on-the-fly atomic UHF (no occupation information).

   -------------------------
    Irrep   Nso     Nmo
   -------------------------
     A        348     348
   -------------------------
    Total     348     348
   -------------------------

  ==> Iterations <==

                           Total Energy        Delta E     RMS |[F,P]|

   @DF-RHF iter SAD:  -524.65049846640466   -5.24650e+02   0.00000e+00
   @DF-RHF iter   1:  -525.07882721428621   -4.28329e-01   1.58387e-03 DIIS
   @DF-RHF iter   2:  -525.25759855111210   -1.78771e-01   5.80894e-04 DIIS
   @DF-RHF iter   3:  -525.27727564052543   -1.96771e-02   1.81369e-04 DIIS
   @DF-RHF iter   4:  -525.27972534175922   -2.44970e-03   5.33911e-05 DIIS
   @DF-RHF iter   5:  -525.27990447155298   -1.79130e-04   1.06883e-05 DIIS
   @DF-RHF iter   6:  -525.27991756811957   -1.30966e-05   3.47005e-06 DIIS
   @DF-RHF iter   7:  -525.27991947077817   -1.90266e-06   9.21180e-07 DIIS
   @DF-RHF iter   8:  -525.27991961597024   -1.45192e-07   2.89551e-07 DIIS
   @DF-RHF iter   9:  -525.27991962358249   -7.61224e-09   1.04330e-07 DIIS
   @DF-RHF iter  10:  -525.27991962480962   -1.22714e-09   1.56342e-08 DIIS
   @DF-RHF iter  11:  -525.27991962485908   -4.94538e-11   4.15980e-09 DIIS
   @DF-RHF iter  12:  -525.27991962485976   -6.82121e-13   2.12350e-09 DIIS
   @DF-RHF iter  13:  -525.27991962486090   -1.13687e-12   6.88800e-10 DIIS
   @DF-RHF iter  14:  -525.27991962486146   -5.68434e-13   3.15803e-10 DIIS
   @DF-RHF iter  15:  -525.27991962486169   -2.27374e-13   1.51232e-10 DIIS
   @DF-RHF iter  16:  -525.27991962486146    2.27374e-13   4.51344e-11 DIIS
  Energy and wave function converged.


  ==> Post-Iterations <==

    Orbital Energies [Eh]
    ---------------------

    Doubly Occupied:

       1A    -15.599027     2A    -15.598813     3A    -15.598590
       4A    -15.598440     5A    -11.275121     6A    -11.275029
       7A    -11.274698     8A    -11.274638     9A    -11.273863
      10A    -11.273790    11A    -11.273439    12A    -11.273404
      13A     -1.314201    14A     -1.313798    15A     -1.225032
      16A     -1.224629    17A     -1.077661    18A     -1.077257
      19A     -0.923527    20A     -0.923122    21A     -0.920141
      22A     -0.919737    23A     -0.761502    24A     -0.761097
      25A     -0.739271    26A     -0.738865    27A     -0.707073
      28A     -0.706670    29A     -0.648554    30A     -0.648150
      31A     -0.581577    32A     -0.581172    33A     -0.575217
      34A     -0.574817    35A     -0.497975    36A     -0.497570
      37A     -0.435142    38A     -0.434740    39A     -0.416719
      40A     -0.416315    41A     -0.360769    42A     -0.360370

    Virtual:

      43A      0.028179    44A      0.036192    45A      0.038563
      46A      0.041361    47A      0.050352    48A      0.053777
      49A      0.060779    50A      0.062457    51A      0.066671
      52A      0.072802    53A      0.096513    54A      0.098570
      55A      0.100532    56A      0.103001    57A      0.111582
      58A      0.113064    59A      0.114499    60A      0.117369
      61A      0.119598    62A      0.122739    63A      0.123985
      64A      0.124747    65A      0.126604    66A      0.133772
      67A      0.142214    68A      0.144924    69A      0.154892
      70A      0.158515    71A      0.159057    72A      0.162552
      73A      0.163793    74A      0.165204    75A      0.169306
      76A      0.174779    77A      0.180386    78A      0.186346
      79A      0.189429    80A      0.195726    81A      0.204468
      82A      0.212550    83A      0.212910    84A      0.221517
      85A      0.250292    86A      0.251959    87A      0.268413
      88A      0.273323    89A      0.277120    90A      0.278790
      91A      0.286376    92A      0.291961    93A      0.296012
      94A      0.297606    95A      0.299822    96A      0.305704
      97A      0.313728    98A      0.320634    99A      0.322405
     100A      0.334889   101A      0.353698   102A      0.356078
     103A      0.358021   104A      0.361508   105A      0.365944
     106A      0.367353   107A      0.381435   108A      0.384394
     109A      0.400294   110A      0.404494   111A      0.410024
     112A      0.411034   113A      0.423842   114A      0.428163
     115A      0.433275   116A      0.435195   117A      0.438930
     118A      0.445102   119A      0.452574   120A      0.457900
     121A      0.470885   122A      0.475378   123A      0.491736
     124A      0.492376   125A      0.504215   126A      0.506177
     127A      0.515985   128A      0.521156   129A      0.524187
     130A      0.525784   131A      0.529711   132A      0.534531
     133A      0.553803   134A      0.555616   135A      0.571877
     136A      0.572814   137A      0.587072   138A      0.587975
     139A      0.590977   140A      0.593113   141A      0.593455
     142A      0.596105   143A      0.608252   144A      0.609139
     145A      0.642207   146A      0.642527   147A      0.645432
     148A      0.647498   149A      0.684618   150A      0.685113
     151A      0.686953   152A      0.688522   153A      0.688710
     154A      0.689191   155A      0.692076   156A      0.693423
     157A      0.695857   158A      0.699042   159A      0.705293
     160A      0.706115   161A      0.745835   162A      0.749687
     163A      0.755101   164A      0.759488   165A      0.766758
     166A      0.768570   167A      0.781873   168A      0.785721
     169A      0.798215   170A      0.800146   171A      0.801869
     172A      0.804919   173A      0.819568   174A      0.824278
     175A      0.830639   176A      0.835727   177A      0.847835
     178A      0.851135   179A      0.879970   180A      0.881784
     181A      0.885865   182A      0.887147   183A      0.894390
     184A      0.897036   185A      0.928703   186A      0.928957
     187A      0.937598   188A      0.943041   189A      0.949206
     190A      0.949705   191A      0.995042   192A      0.996025
     193A      1.000385   194A      1.006321   195A      1.013308
     196A      1.016253   197A      1.034258   198A      1.036269
     199A      1.050468   200A      1.051002   201A      1.088630
     202A      1.090357   203A      1.099975   204A      1.100809
     205A      1.120677   206A      1.123462   207A      1.124442
     208A      1.126091   209A      1.132941   210A      1.136700
     211A      1.157777   212A      1.160856   213A      1.172976
     214A      1.173356   215A      1.234716   216A      1.236472
     217A      1.238347   218A      1.239258   219A      1.307800
     220A      1.311541   221A      1.330715   222A      1.332606
     223A      1.413914   224A      1.414844   225A      1.451076
     226A      1.452225   227A      1.485161   228A      1.486442
     229A      1.487310   230A      1.489196   231A      1.500096
     232A      1.500833   233A      1.503381   234A      1.508196
     235A      1.517722   236A      1.520611   237A      1.571945
     238A      1.572583   239A      1.573957   240A      1.575723
     241A      1.587043   242A      1.592270   243A      1.636910
     244A      1.637256   245A      1.641716   246A      1.647827
     247A      1.649917   248A      1.651594   249A      1.675692
     250A      1.679170   251A      1.716463   252A      1.716803
     253A      1.746181   254A      1.746621   255A      1.755205
     256A      1.757585   257A      1.784670   258A      1.786442
     259A      1.814936   260A      1.815300   261A      1.893058
     262A      1.893626   263A      1.915758   264A      1.916880
     265A      1.964351   266A      1.966849   267A      1.986920
     268A      1.987718   269A      2.030645   270A      2.031381
     271A      2.090864   272A      2.091164   273A      2.100761
     274A      2.102601   275A      2.142247   276A      2.143777
     277A      2.162852   278A      2.163293   279A      2.190048
     280A      2.191011   281A      2.193423   282A      2.194841
     283A      2.199851   284A      2.200978   285A      2.202142
     286A      2.202171   287A      2.227101   288A      2.227533
     289A      2.312197   290A      2.314399   291A      2.355868
     292A      2.358623   293A      2.430190   294A      2.432779
     295A      2.438958   296A      2.440552   297A      2.519102
     298A      2.519345   299A      2.521848   300A      2.522049
     301A      2.584354   302A      2.586567   303A      2.605668
     304A      2.606857   305A      2.664329   306A      2.666074
     307A      2.675318   308A      2.676154   309A      2.686915
     310A      2.694140   311A      2.712788   312A      2.715769
     313A      2.718357   314A      2.719676   315A      2.843291
     316A      2.843611   317A      2.865353   318A      2.865897
     319A      2.939800   320A      2.943420   321A      3.001215
     322A      3.001738   323A      3.017709   324A      3.018046
     325A      3.031595   326A      3.032697   327A      3.093444
     328A      3.094280   329A      3.221237   330A      3.225675
     331A      3.255355   332A      3.255704   333A      3.284415
     334A      3.286157   335A      3.366021   336A      3.368725
     337A      3.413232   338A      3.413913   339A      3.514186
     340A      3.514683   341A      3.590195   342A      3.592562
     343A      3.626545   344A      3.628253   345A      3.976399
     346A      3.977756   347A      4.252503   348A      4.253610

    Final Occupation by Irrep:
              A
    DOCC [    42 ]

  @DF-RHF Final Energy:  -525.27991962486146

   => Energetics <=

    Nuclear Repulsion Energy =            518.0100313470775291
    One-Electron Energy =               -1736.6768586963225971
    Two-Electron Energy =                 693.3869077243836045
    Total Energy =                       -525.2799196248614635

Computation Completed


Properties will be evaluated at   0.000000,   0.000000,   0.000000 [a0]

Properties computed using the SCF density matrix

  Nuclear Dipole Moment: [e a0]
     X:  -259.9086      Y:  -614.1349      Z:  -112.3386

  Electronic Dipole Moment: [e a0]
     X:   259.9113      Y:   614.1384      Z:   112.3339

  Dipole Moment: [e a0]
     X:     0.0026      Y:     0.0034      Z:    -0.0046     Total:     0.0063

  Dipole Moment: [D]
     X:     0.0067      Y:     0.0087      Z:    -0.0117     Total:     0.0161


*** tstop() called on atl1-1-01-013-7-l.pace.gatech.edu at Mon Nov 29 16:11:06 2021
Module time:
	user time   =      37.97 seconds =       0.63 minutes
	system time =       1.17 seconds =       0.02 minutes
	total time  =         21 seconds =       0.35 minutes
Total time:
	user time   =      37.97 seconds =       0.63 minutes
	system time =       1.17 seconds =       0.02 minutes
	total time  =         21 seconds =       0.35 minutes

  //>>>>>>>>>>>>>>>>>>>>>>>>>>>>>>>>>>>//
  //            Monomer A HF           //
  //<<<<<<<<<<<<<<<<<<<<<<<<<<<<<<<<<<<//


*** tstart() called on atl1-1-01-013-7-l.pace.gatech.edu
*** at Mon Nov 29 16:11:06 2021

   => Loading Basis Set <=

    Name: AUG-CC-PVDZ
    Role: ORBITAL
    Keyword: BASIS
    atoms 1-2, 11-12  entry N          line   218 file /storage/home/hhive1/csargent30/data/miniconda3/envs/psi4/share/psi4/basis/aug-cc-pvdz.gbs
    atoms 3-6, 13-16  entry H          line    40 file /storage/home/hhive1/csargent30/data/miniconda3/envs/psi4/share/psi4/basis/aug-cc-pvdz.gbs
    atoms 7-10, 17-20 entry C          line   182 file /storage/home/hhive1/csargent30/data/miniconda3/envs/psi4/share/psi4/basis/aug-cc-pvdz.gbs


         ---------------------------------------------------------
                                   SCF
               by Justin Turney, Rob Parrish, Andy Simmonett
                          and Daniel G. A. Smith
                              RHF Reference
                        2 Threads,   6675 MiB Core
         ---------------------------------------------------------

  ==> Geometry <==

    Molecular point group: c1
    Full point group: C1

    Geometry (in Bohr), charge = 0, multiplicity = 1:

       Center              X                  Y                   Z               Mass
    ------------   -----------------  -----------------  -----------------  -----------------
         N           -1.330847580000     0.980326580000     0.426270370000    14.003074004430
         N            3.953773330000     0.980326580000     0.426270370000    14.003074004430
         H            3.567136740000     4.352185690000    -0.942309730000     1.007825032230
         H           -0.944210980000     4.352185690000    -0.942309730000     1.007825032230
         H           -0.944210980000    -2.391532530000     1.794850470000     1.007825032230
         H            3.567136740000    -2.391532530000     1.794850470000     1.007825032230
         C            2.622925760000     2.940979740000    -0.426270370000    12.000000000000
         C            0.000000000000     2.940979740000    -0.426270370000    12.000000000000
         C            0.000000000000    -0.980326580000     1.278811120000    12.000000000000
         C            2.622925760000    -0.980326580000     1.278811120000    12.000000000000
      Gh(N)         -10.142073580000   -15.602587090000    -3.100997930000    14.003074004430
      Gh(N)          -4.857452670000   -15.602587090000    -3.100997930000    14.003074004430
      Gh(H)          -9.755436980000   -18.974446200000    -4.469578030000     1.007825032230
      Gh(H)          -9.755436980000   -12.230727980000    -1.732417830000     1.007825032230
      Gh(H)          -5.244089270000   -18.974446200000    -4.469578030000     1.007825032230
      Gh(H)          -5.244089270000   -12.230727980000    -1.732417830000     1.007825032230
      Gh(C)          -8.811226010000   -17.563240250000    -3.953538670000    12.000000000000
      Gh(C)          -8.811226010000   -13.641933930000    -2.248457180000    12.000000000000
      Gh(C)          -6.188300250000   -17.563240250000    -3.953538670000    12.000000000000
      Gh(C)          -6.188300250000   -13.641933930000    -2.248457180000    12.000000000000

  Running in c1 symmetry.

  Rotational constants: A =      0.08407  B =      0.00236  C =      0.00231 [cm^-1]
  Rotational constants: A =   2520.38810  B =     70.74336  C =     69.33749 [MHz]
  Nuclear repulsion =  212.551731110485349

  Charge       = 0
  Multiplicity = 1
  Electrons    = 42
  Nalpha       = 21
  Nbeta        = 21

  ==> Algorithm <==

  SCF Algorithm Type is DF.
  DIIS enabled.
  MOM disabled.
  Fractional occupation disabled.
  Guess Type is SAD.
  Energy threshold   = 1.00e-10
  Density threshold  = 1.00e-10
  Integral threshold = 1.00e-12

  ==> Primary Basis <==

  Basis Set: AUG-CC-PVDZ
    Blend: AUG-CC-PVDZ
    Number of shells: 148
    Number of basis functions: 348
    Number of Cartesian functions: 372
    Spherical Harmonics?: true
    Max angular momentum: 2

   => Loading Basis Set <=

    Name: (AUG-CC-PVDZ AUX)
    Role: JKFIT
    Keyword: DF_BASIS_SCF
    atoms 1-2, 11-12  entry N          line   212 file /storage/home/hhive1/csargent30/data/miniconda3/envs/psi4/share/psi4/basis/aug-cc-pvdz-jkfit.gbs
    atoms 3-6, 13-16  entry H          line    70 file /storage/home/hhive1/csargent30/data/miniconda3/envs/psi4/share/psi4/basis/aug-cc-pvdz-jkfit.gbs
    atoms 7-10, 17-20 entry C          line   154 file /storage/home/hhive1/csargent30/data/miniconda3/envs/psi4/share/psi4/basis/aug-cc-pvdz-jkfit.gbs

  ==> Integral Setup <==

  ==> DiskDFJK: Density-Fitted J/K Matrices <==

    J tasked:                  Yes
    K tasked:                  Yes
    wK tasked:                  No
    OpenMP threads:              2
    Integrals threads:           2
    Memory [MiB]:             5006
    Algorithm:                Core
    Integral Cache:           LOAD
    Schwarz Cutoff:          1E-12
    Fitting Condition:       1E-10

   => Auxiliary Basis Set <=

  Basis Set: (AUG-CC-PVDZ AUX)
    Blend: AUG-CC-PVDZ-JKFIT
    Number of shells: 432
    Number of basis functions: 1288
    Number of Cartesian functions: 1492
    Spherical Harmonics?: true
    Max angular momentum: 3

  Minimum eigenvalue in the overlap matrix is 9.1266846185E-06.
  Reciprocal condition number of the overlap matrix is 7.1116340395E-07.
    Using symmetric orthogonalization.

  ==> Pre-Iterations <==

  SCF Guess: Superposition of Atomic Densities via on-the-fly atomic UHF (no occupation information).

   -------------------------
    Irrep   Nso     Nmo
   -------------------------
     A        348     348
   -------------------------
    Total     348     348
   -------------------------

  ==> Iterations <==

                           Total Energy        Delta E     RMS |[F,P]|

   @DF-RHF iter SAD:  -262.32523137094637   -2.62325e+02   0.00000e+00
   @DF-RHF iter   1:  -262.53942321054757   -2.14192e-01   1.11992e-03 DIIS
   @DF-RHF iter   2:  -262.62880529457857   -8.93821e-02   4.10679e-04 DIIS
   @DF-RHF iter   3:  -262.63864060892962   -9.83531e-03   1.28250e-04 DIIS
   @DF-RHF iter   4:  -262.63986551266527   -1.22490e-03   3.77604e-05 DIIS
   @DF-RHF iter   5:  -262.63995512211295   -8.96094e-05   7.55689e-06 DIIS
   @DF-RHF iter   6:  -262.63996167180375   -6.54969e-06   2.45182e-06 DIIS
   @DF-RHF iter   7:  -262.63996262352771   -9.51724e-07   6.40067e-07 DIIS
   @DF-RHF iter   8:  -262.63996269740488   -7.38772e-08   9.91633e-08 DIIS
   @DF-RHF iter   9:  -262.63996269938946   -1.98457e-09   1.88311e-08 DIIS
   @DF-RHF iter  10:  -262.63996269946182   -7.23617e-11   3.21664e-09 DIIS
   @DF-RHF iter  11:  -262.63996269946318   -1.36424e-12   7.17926e-10 DIIS
   @DF-RHF iter  12:  -262.63996269946404   -8.52651e-13   3.71695e-10 DIIS
   @DF-RHF iter  13:  -262.63996269946324    7.95808e-13   7.50482e-11 DIIS
  Energy and wave function converged.


  ==> Post-Iterations <==

    Orbital Energies [Eh]
    ---------------------

    Doubly Occupied:

       1A    -15.598074     2A    -15.598055     3A    -11.274238
       4A    -11.274191     5A    -11.272976     6A    -11.272964
       7A     -1.313349     8A     -1.224178     9A     -1.076805
      10A     -0.922664    11A     -0.919285    12A     -0.760640
      13A     -0.738404    14A     -0.706217    15A     -0.647692
      16A     -0.580713    17A     -0.574371    18A     -0.497114
      19A     -0.434290    20A     -0.415857    21A     -0.359926

    Virtual:

      22A      0.020919    23A      0.032532    24A      0.038290
      25A      0.038577    26A      0.046722    27A      0.052499
      28A      0.059980    29A      0.062137    30A      0.069601
      31A      0.078871    32A      0.091214    33A      0.098912
      34A      0.100170    35A      0.104619    36A      0.107184
      37A      0.108829    38A      0.114387    39A      0.116366
      40A      0.121290    41A      0.122758    42A      0.124972
      43A      0.126394    44A      0.128904    45A      0.131461
      46A      0.141998    47A      0.145304    48A      0.154024
      49A      0.157373    50A      0.159627    51A      0.160746
      52A      0.164312    53A      0.165863    54A      0.168024
      55A      0.176274    56A      0.190541    57A      0.192408
      58A      0.198627    59A      0.202089    60A      0.208551
      61A      0.211797    62A      0.213282    63A      0.231470
      64A      0.240793    65A      0.244259    66A      0.254635
      67A      0.259960    68A      0.270800    69A      0.272091
      70A      0.279647    71A      0.292973    72A      0.296053
      73A      0.297847    74A      0.312799    75A      0.318070
      76A      0.321437    77A      0.328846    78A      0.333909
      79A      0.339180    80A      0.347746    81A      0.357543
      82A      0.359301    83A      0.365351    84A      0.381444
      85A      0.383627    86A      0.385486    87A      0.400862
      88A      0.401868    89A      0.411102    90A      0.420078
      91A      0.425209    92A      0.428755    93A      0.436575
      94A      0.440685    95A      0.444385    96A      0.453849
      97A      0.460145    98A      0.466324    99A      0.472411
     100A      0.476953   101A      0.479081   102A      0.492719
     103A      0.506616   104A      0.509759   105A      0.516173
     106A      0.523434   107A      0.528159   108A      0.532117
     109A      0.542639   110A      0.555117   111A      0.560578
     112A      0.561882   113A      0.564607   114A      0.573197
     115A      0.583176   116A      0.590208   117A      0.592133
     118A      0.594541   119A      0.596706   120A      0.609155
     121A      0.616465   122A      0.620573   123A      0.636761
     124A      0.644493   125A      0.645936   126A      0.649112
     127A      0.651039   128A      0.682470   129A      0.685932
     130A      0.687070   131A      0.689847   132A      0.691508
     133A      0.693373   134A      0.696981   135A      0.705530
     136A      0.720484   137A      0.734180   138A      0.746935
     139A      0.749323   140A      0.763790   141A      0.767646
     142A      0.775107   143A      0.786217   144A      0.795740
     145A      0.800645   146A      0.803035   147A      0.812283
     148A      0.813784   149A      0.820580   150A      0.825022
     151A      0.835086   152A      0.846751   153A      0.849932
     154A      0.851484   155A      0.870595   156A      0.880953
     157A      0.886868   158A      0.887816   159A      0.897577
     160A      0.905691   161A      0.928730   162A      0.931961
     163A      0.940296   164A      0.948362   165A      0.950352
     166A      0.970436   167A      0.976477   168A      0.986305
     169A      0.998519   170A      1.001144   171A      1.016325
     172A      1.030901   173A      1.037978   174A      1.048708
     175A      1.051895   176A      1.077207   177A      1.089561
     178A      1.091181   179A      1.100725   180A      1.122981
     181A      1.125227   182A      1.132234   183A      1.137173
     184A      1.140254   185A      1.159071   186A      1.168273
     187A      1.170636   188A      1.173907   189A      1.193249
     190A      1.199941   191A      1.201547   192A      1.222968
     193A      1.236065   194A      1.239101   195A      1.251161
     196A      1.308925   197A      1.310182   198A      1.318282
     199A      1.327607   200A      1.329475   201A      1.333363
     202A      1.348775   203A      1.390332   204A      1.414895
     205A      1.448649   206A      1.451869   207A      1.455225
     208A      1.481380   209A      1.486490   210A      1.487405
     211A      1.489198   212A      1.501471   213A      1.504832
     214A      1.519893   215A      1.572844   216A      1.575475
     217A      1.589732   218A      1.637967   219A      1.642888
     220A      1.649741   221A      1.659240   222A      1.677736
     223A      1.698251   224A      1.717285   225A      1.747320
     226A      1.758054   227A      1.786317   228A      1.815790
     229A      1.894461   230A      1.916660   231A      1.965498
     232A      1.987898   233A      2.031602   234A      2.070332
     235A      2.091742   236A      2.101168   237A      2.102996
     238A      2.119550   239A      2.143558   240A      2.156201
     241A      2.159215   242A      2.163958   243A      2.191781
     244A      2.194550   245A      2.194728   246A      2.200751
     247A      2.202667   248A      2.228028   249A      2.236595
     250A      2.249142   251A      2.250404   252A      2.309618
     253A      2.313338   254A      2.319757   255A      2.356713
     256A      2.386063   257A      2.419912   258A      2.431472
     259A      2.435373   260A      2.441303   261A      2.444440
     262A      2.472241   263A      2.488780   264A      2.497947
     265A      2.520037   266A      2.522748   267A      2.526295
     268A      2.546333   269A      2.570878   270A      2.585390
     271A      2.592198   272A      2.606745   273A      2.625936
     274A      2.665524   275A      2.676989   276A      2.688282
     277A      2.714605   278A      2.717972   279A      2.719193
     280A      2.726170   281A      2.767450   282A      2.844134
     283A      2.866478   284A      2.905733   285A      2.940578
     286A      2.948565   287A      2.955596   288A      2.973245
     289A      3.002090   290A      3.018791   291A      3.032766
     292A      3.057805   293A      3.069776   294A      3.094553
     295A      3.115735   296A      3.223123   297A      3.245471
     298A      3.256188   299A      3.285568   300A      3.290070
     301A      3.321495   302A      3.338457   303A      3.341992
     304A      3.348183   305A      3.353361   306A      3.367029
     307A      3.412507   308A      3.414529   309A      3.471128
     310A      3.501597   311A      3.515050   312A      3.521103
     313A      3.591014   314A      3.606155   315A      3.610202
     316A      3.627975   317A      3.700193   318A      3.819415
     319A      3.830247   320A      3.940639   321A      3.971384
     322A      3.977638   323A      4.011932   324A      4.198679
     325A      4.244716   326A      4.253866   327A      4.442216
     328A      4.546579   329A      4.578824   330A      4.867351
     331A      4.976852   332A      5.062430   333A      5.268654
     334A      5.316496   335A      5.632532   336A      5.692375
     337A      5.826790   338A      5.952129   339A      6.284182
     340A      6.307063   341A      6.453325   342A      6.631026
     343A     18.125479   344A     18.208446   345A     19.019209
     346A     19.343104   347A     25.287009   348A     25.374410

    Final Occupation by Irrep:
              A
    DOCC [    21 ]

  @DF-RHF Final Energy:  -262.63996269946324

   => Energetics <=

    Nuclear Repulsion Energy =            212.5517311104853491
    One-Electron Energy =                -775.4593808137900623
    Two-Electron Energy =                 300.2676870038415018
    Total Energy =                       -262.6399626994632399

Computation Completed


Properties will be evaluated at   0.000000,   0.000000,   0.000000 [a0]

Properties computed using the SCF density matrix

  Nuclear Dipole Moment: [e a0]
     X:    55.0814      Y:    41.1737      Z:    17.9034

  Electronic Dipole Moment: [e a0]
     X:   -55.0813      Y:   -41.1738      Z:   -17.9034

  Dipole Moment: [e a0]
     X:     0.0001      Y:    -0.0001      Z:    -0.0000     Total:     0.0002

  Dipole Moment: [D]
     X:     0.0003      Y:    -0.0003      Z:    -0.0001     Total:     0.0004


*** tstop() called on atl1-1-01-013-7-l.pace.gatech.edu at Mon Nov 29 16:11:18 2021
Module time:
	user time   =      22.92 seconds =       0.38 minutes
	system time =       0.58 seconds =       0.01 minutes
	total time  =         12 seconds =       0.20 minutes
Total time:
	user time   =      60.90 seconds =       1.02 minutes
	system time =       1.75 seconds =       0.03 minutes
	total time  =         33 seconds =       0.55 minutes

  //>>>>>>>>>>>>>>>>>>>>>>>>>>>>>>>>>>>//
  //            Monomer B HF           //
  //<<<<<<<<<<<<<<<<<<<<<<<<<<<<<<<<<<<//


*** tstart() called on atl1-1-01-013-7-l.pace.gatech.edu
*** at Mon Nov 29 16:11:18 2021

   => Loading Basis Set <=

    Name: AUG-CC-PVDZ
    Role: ORBITAL
    Keyword: BASIS
    atoms 1-2, 11-12  entry N          line   218 file /storage/home/hhive1/csargent30/data/miniconda3/envs/psi4/share/psi4/basis/aug-cc-pvdz.gbs
    atoms 3-6, 13-16  entry H          line    40 file /storage/home/hhive1/csargent30/data/miniconda3/envs/psi4/share/psi4/basis/aug-cc-pvdz.gbs
    atoms 7-10, 17-20 entry C          line   182 file /storage/home/hhive1/csargent30/data/miniconda3/envs/psi4/share/psi4/basis/aug-cc-pvdz.gbs


         ---------------------------------------------------------
                                   SCF
               by Justin Turney, Rob Parrish, Andy Simmonett
                          and Daniel G. A. Smith
                              RHF Reference
                        2 Threads,   6675 MiB Core
         ---------------------------------------------------------

  ==> Geometry <==

    Molecular point group: c1
    Full point group: C1

    Geometry (in Bohr), charge = 0, multiplicity = 1:

       Center              X                  Y                   Z               Mass
    ------------   -----------------  -----------------  -----------------  -----------------
      Gh(N)          -1.330847580000     0.980326580000     0.426270370000    14.003074004430
      Gh(N)           3.953773330000     0.980326580000     0.426270370000    14.003074004430
      Gh(H)           3.567136740000     4.352185690000    -0.942309730000     1.007825032230
      Gh(H)          -0.944210980000     4.352185690000    -0.942309730000     1.007825032230
      Gh(H)          -0.944210980000    -2.391532530000     1.794850470000     1.007825032230
      Gh(H)           3.567136740000    -2.391532530000     1.794850470000     1.007825032230
      Gh(C)           2.622925760000     2.940979740000    -0.426270370000    12.000000000000
      Gh(C)           0.000000000000     2.940979740000    -0.426270370000    12.000000000000
      Gh(C)           0.000000000000    -0.980326580000     1.278811120000    12.000000000000
      Gh(C)           2.622925760000    -0.980326580000     1.278811120000    12.000000000000
         N          -10.142073580000   -15.602587090000    -3.100997930000    14.003074004430
         N           -4.857452670000   -15.602587090000    -3.100997930000    14.003074004430
         H           -9.755436980000   -18.974446200000    -4.469578030000     1.007825032230
         H           -9.755436980000   -12.230727980000    -1.732417830000     1.007825032230
         H           -5.244089270000   -18.974446200000    -4.469578030000     1.007825032230
         H           -5.244089270000   -12.230727980000    -1.732417830000     1.007825032230
         C           -8.811226010000   -17.563240250000    -3.953538670000    12.000000000000
         C           -8.811226010000   -13.641933930000    -2.248457180000    12.000000000000
         C           -6.188300250000   -17.563240250000    -3.953538670000    12.000000000000
         C           -6.188300250000   -13.641933930000    -2.248457180000    12.000000000000

  Running in c1 symmetry.

  Rotational constants: A =      0.08407  B =      0.00236  C =      0.00231 [cm^-1]
  Rotational constants: A =   2520.38810  B =     70.74336  C =     69.33749 [MHz]
  Nuclear repulsion =  212.551731143112931

  Charge       = 0
  Multiplicity = 1
  Electrons    = 42
  Nalpha       = 21
  Nbeta        = 21

  ==> Algorithm <==

  SCF Algorithm Type is DF.
  DIIS enabled.
  MOM disabled.
  Fractional occupation disabled.
  Guess Type is SAD.
  Energy threshold   = 1.00e-10
  Density threshold  = 1.00e-10
  Integral threshold = 1.00e-12

  ==> Primary Basis <==

  Basis Set: AUG-CC-PVDZ
    Blend: AUG-CC-PVDZ
    Number of shells: 148
    Number of basis functions: 348
    Number of Cartesian functions: 372
    Spherical Harmonics?: true
    Max angular momentum: 2

   => Loading Basis Set <=

    Name: (AUG-CC-PVDZ AUX)
    Role: JKFIT
    Keyword: DF_BASIS_SCF
    atoms 1-2, 11-12  entry N          line   212 file /storage/home/hhive1/csargent30/data/miniconda3/envs/psi4/share/psi4/basis/aug-cc-pvdz-jkfit.gbs
    atoms 3-6, 13-16  entry H          line    70 file /storage/home/hhive1/csargent30/data/miniconda3/envs/psi4/share/psi4/basis/aug-cc-pvdz-jkfit.gbs
    atoms 7-10, 17-20 entry C          line   154 file /storage/home/hhive1/csargent30/data/miniconda3/envs/psi4/share/psi4/basis/aug-cc-pvdz-jkfit.gbs

  ==> Integral Setup <==

  ==> DiskDFJK: Density-Fitted J/K Matrices <==

    J tasked:                  Yes
    K tasked:                  Yes
    wK tasked:                  No
    OpenMP threads:              2
    Integrals threads:           2
    Memory [MiB]:             5006
    Algorithm:                Core
    Integral Cache:           LOAD
    Schwarz Cutoff:          1E-12
    Fitting Condition:       1E-10

   => Auxiliary Basis Set <=

  Basis Set: (AUG-CC-PVDZ AUX)
    Blend: AUG-CC-PVDZ-JKFIT
    Number of shells: 432
    Number of basis functions: 1288
    Number of Cartesian functions: 1492
    Spherical Harmonics?: true
    Max angular momentum: 3

  Minimum eigenvalue in the overlap matrix is 9.1266846185E-06.
  Reciprocal condition number of the overlap matrix is 7.1116340395E-07.
    Using symmetric orthogonalization.

  ==> Pre-Iterations <==

  SCF Guess: Superposition of Atomic Densities via on-the-fly atomic UHF (no occupation information).

   -------------------------
    Irrep   Nso     Nmo
   -------------------------
     A        348     348
   -------------------------
    Total     348     348
   -------------------------

  ==> Iterations <==

                           Total Energy        Delta E     RMS |[F,P]|

   @DF-RHF iter SAD:  -262.32523136800990   -2.62325e+02   0.00000e+00
   @DF-RHF iter   1:  -262.53942807188480   -2.14197e-01   1.11991e-03 DIIS
   @DF-RHF iter   2:  -262.62881099715929   -8.93829e-02   4.10689e-04 DIIS
   @DF-RHF iter   3:  -262.63864619681283   -9.83520e-03   1.28246e-04 DIIS
   @DF-RHF iter   4:  -262.63987091997978   -1.22472e-03   3.77615e-05 DIIS
   @DF-RHF iter   5:  -262.63996052449198   -8.96045e-05   7.55595e-06 DIIS
   @DF-RHF iter   6:  -262.63996707468158   -6.55019e-06   2.45259e-06 DIIS
   @DF-RHF iter   7:  -262.63996802701587   -9.52334e-07   6.40124e-07 DIIS
   @DF-RHF iter   8:  -262.63996810090350   -7.38876e-08   9.91722e-08 DIIS
   @DF-RHF iter   9:  -262.63996810288859   -1.98509e-09   1.88398e-08 DIIS
   @DF-RHF iter  10:  -262.63996810295924   -7.06564e-11   3.33628e-09 DIIS
   @DF-RHF iter  11:  -262.63996810296129   -2.04636e-12   1.31972e-09 DIIS
   @DF-RHF iter  12:  -262.63996810296129    0.00000e+00   3.92656e-10 DIIS
   @DF-RHF iter  13:  -262.63996810296237   -1.08002e-12   7.51985e-11 DIIS
  Energy and wave function converged.


  ==> Post-Iterations <==

    Orbital Energies [Eh]
    ---------------------

    Doubly Occupied:

       1A    -15.598070     2A    -15.598051     3A    -11.274234
       4A    -11.274187     5A    -11.272973     6A    -11.272959
       7A     -1.313347     8A     -1.224176     9A     -1.076804
      10A     -0.922662    11A     -0.919283    12A     -0.760638
      13A     -0.738402    14A     -0.706215    15A     -0.647690
      16A     -0.580711    17A     -0.574370    18A     -0.497112
      19A     -0.434289    20A     -0.415856    21A     -0.359924

    Virtual:

      22A      0.020193    23A      0.032677    24A      0.037786
      25A      0.038544    26A      0.047315    27A      0.052195
      28A      0.061118    29A      0.061949    30A      0.066932
      31A      0.080274    32A      0.090080    33A      0.098980
      34A      0.099585    35A      0.103406    36A      0.107295
      37A      0.112442    38A      0.114383    39A      0.114648
      40A      0.119218    41A      0.122705    42A      0.124503
      43A      0.128645    44A      0.130777    45A      0.133578
      46A      0.138409    47A      0.144891    48A      0.151953
      49A      0.153127    50A      0.158068    51A      0.160169
      52A      0.163425    53A      0.169723    54A      0.175987
      55A      0.179199    56A      0.186600    57A      0.188029
      58A      0.196991    59A      0.204081    60A      0.207137
      61A      0.213136    62A      0.218421    63A      0.230609
      64A      0.234949    65A      0.241086    66A      0.252046
      67A      0.261852    68A      0.269889    69A      0.275562
      70A      0.280218    71A      0.288866    72A      0.297699
      73A      0.303647    74A      0.306301    75A      0.316177
      76A      0.320991    77A      0.328917    78A      0.331264
      79A      0.333918    80A      0.346432    81A      0.358078
      82A      0.360324    83A      0.366665    84A      0.380756
      85A      0.382895    86A      0.386798    87A      0.400903
      88A      0.403907    89A      0.410872    90A      0.420343
      91A      0.427200    92A      0.432336    93A      0.434864
      94A      0.438687    95A      0.446794    96A      0.453995
      97A      0.462134    98A      0.463399    99A      0.472227
     100A      0.478982   101A      0.481053   102A      0.492377
     103A      0.505350   104A      0.508533   105A      0.521716
     106A      0.523936   107A      0.526621   108A      0.531477
     109A      0.539594   110A      0.555342   111A      0.558524
     112A      0.562759   113A      0.564909   114A      0.573451
     115A      0.583053   116A      0.588345   117A      0.592864
     118A      0.595858   119A      0.596325   120A      0.609596
     121A      0.614893   122A      0.622353   123A      0.640415
     124A      0.644217   125A      0.647244   126A      0.650973
     127A      0.652097   128A      0.680257   129A      0.683912
     130A      0.686191   131A      0.689294   132A      0.690505
     133A      0.693680   134A      0.698283   135A      0.705505
     136A      0.720545   137A      0.729731   138A      0.747941
     139A      0.748788   140A      0.756035   141A      0.767561
     142A      0.775803   143A      0.782442   144A      0.794319
     145A      0.800261   146A      0.802819   147A      0.811365
     148A      0.813097   149A      0.823736   150A      0.827592
     151A      0.831199   152A      0.846259   153A      0.849945
     154A      0.852761   155A      0.869465   156A      0.882326
     157A      0.887490   158A      0.888177   159A      0.894901
     160A      0.905998   161A      0.929143   162A      0.930050
     163A      0.940788   164A      0.948930   165A      0.949839
     166A      0.971327   167A      0.976480   168A      0.985945
     169A      0.998862   170A      1.003128   171A      1.013663
     172A      1.032302   173A      1.036055   174A      1.047190
     175A      1.051275   176A      1.076305   177A      1.089453
     178A      1.089736   179A      1.101090   180A      1.123571
     181A      1.124352   182A      1.131277   183A      1.134289
     184A      1.142177   185A      1.159694   186A      1.168575
     187A      1.171064   188A      1.173672   189A      1.191981
     190A      1.194388   191A      1.200033   192A      1.221792
     193A      1.236920   194A      1.239678   195A      1.253623
     196A      1.306970   197A      1.310561   198A      1.319152
     199A      1.326503   200A      1.331142   201A      1.332545
     202A      1.346898   203A      1.389284   204A      1.415695
     205A      1.447718   206A      1.452680   207A      1.454685
     208A      1.479636   209A      1.486472   210A      1.487009
     211A      1.488919   212A      1.501455   213A      1.508204
     214A      1.519982   215A      1.573058   216A      1.575819
     217A      1.590890   218A      1.637847   219A      1.649345
     220A      1.650871   221A      1.658876   222A      1.678681
     223A      1.697550   224A      1.717255   225A      1.746729
     226A      1.755772   227A      1.785827   228A      1.815742
     229A      1.893605   230A      1.917050   231A      1.966682
     232A      1.987957   233A      2.031679   234A      2.069857
     235A      2.091662   236A      2.101734   237A      2.104490
     238A      2.125157   239A      2.143626   240A      2.156154
     241A      2.158869   242A      2.163818   243A      2.190588
     244A      2.194964   245A      2.195771   246A      2.201334
     247A      2.202535   248A      2.227799   249A      2.234710
     250A      2.244426   251A      2.249214   252A      2.309204
     253A      2.315064   254A      2.319993   255A      2.359226
     256A      2.385898   257A      2.418915   258A      2.431941
     259A      2.434908   260A      2.437901   261A      2.440940
     262A      2.472048   263A      2.487596   264A      2.497703
     265A      2.519754   266A      2.522470   267A      2.525329
     268A      2.545660   269A      2.569309   270A      2.586910
     271A      2.591935   272A      2.607246   273A      2.625456
     274A      2.666278   275A      2.676023   276A      2.693797
     277A      2.714721   278A      2.717471   279A      2.719885
     280A      2.726062   281A      2.767370   282A      2.844056
     283A      2.865976   284A      2.904999   285A      2.943551
     286A      2.947459   287A      2.956322   288A      2.973170
     289A      3.002223   290A      3.018249   291A      3.032761
     292A      3.057544   293A      3.066751   294A      3.094425
     295A      3.114602   296A      3.224859   297A      3.246650
     298A      3.256083   299A      3.286234   300A      3.289374
     301A      3.321188   302A      3.337661   303A      3.340038
     304A      3.347866   305A      3.351400   306A      3.369180
     307A      3.411404   308A      3.415390   309A      3.470342
     310A      3.501590   311A      3.515149   312A      3.521778
     313A      3.593024   314A      3.604662   315A      3.605864
     316A      3.628257   317A      3.700461   318A      3.818689
     319A      3.830244   320A      3.941003   321A      3.968807
     322A      3.977821   323A      4.011430   324A      4.194814
     325A      4.243534   326A      4.253773   327A      4.441644
     328A      4.546155   329A      4.578573   330A      4.867196
     331A      4.976002   332A      5.058226   333A      5.262826
     334A      5.315913   335A      5.630548   336A      5.690848
     337A      5.826324   338A      5.951833   339A      6.283518
     340A      6.306258   341A      6.452937   342A      6.630437
     343A     18.124893   344A     18.207664   345A     19.018237
     346A     19.343090   347A     25.286236   348A     25.373917

    Final Occupation by Irrep:
              A
    DOCC [    21 ]

  @DF-RHF Final Energy:  -262.63996810296237

   => Energetics <=

    Nuclear Repulsion Energy =            212.5517311431129315
    One-Electron Energy =                -775.4594941750904127
    Two-Electron Energy =                 300.2677949290151673
    Total Energy =                       -262.6399681029623707

Computation Completed


Properties will be evaluated at   0.000000,   0.000000,   0.000000 [a0]

Properties computed using the SCF density matrix

  Nuclear Dipole Moment: [e a0]
     X:  -314.9901      Y:  -655.3087      Z:  -130.2419

  Electronic Dipole Moment: [e a0]
     X:   314.9900      Y:   655.3087      Z:   130.2419

  Dipole Moment: [e a0]
     X:    -0.0001      Y:     0.0000      Z:    -0.0000     Total:     0.0001

  Dipole Moment: [D]
     X:    -0.0002      Y:     0.0001      Z:    -0.0000     Total:     0.0002


*** tstop() called on atl1-1-01-013-7-l.pace.gatech.edu at Mon Nov 29 16:12:14 2021
Module time:
	user time   =      20.01 seconds =       0.33 minutes
	system time =       0.56 seconds =       0.01 minutes
	total time  =         56 seconds =       0.93 minutes
Total time:
	user time   =      80.92 seconds =       1.35 minutes
	system time =       2.31 seconds =       0.04 minutes
	total time  =         89 seconds =       1.48 minutes
  Constructing Basis Sets for SAPT...

   => Loading Basis Set <=

    Name: (AUG-CC-PVDZ AUX)
    Role: RIFIT
    Keyword: DF_BASIS_SAPT
    atoms 1-2, 11-12  entry N          line   158 file /storage/home/hhive1/csargent30/data/miniconda3/envs/psi4/share/psi4/basis/aug-cc-pvdz-ri.gbs
    atoms 3-6, 13-16  entry H          line    30 file /storage/home/hhive1/csargent30/data/miniconda3/envs/psi4/share/psi4/basis/aug-cc-pvdz-ri.gbs
    atoms 7-10, 17-20 entry C          line   112 file /storage/home/hhive1/csargent30/data/miniconda3/envs/psi4/share/psi4/basis/aug-cc-pvdz-ri.gbs


  //>>>>>>>>>>>>>>>>>>>>>>>>>>>>>>>>>>>//
  //               SAPT0               //
  //<<<<<<<<<<<<<<<<<<<<<<<<<<<<<<<<<<<//


*** tstart() called on atl1-1-01-013-7-l.pace.gatech.edu
*** at Mon Nov 29 16:12:14 2021

        SAPT0
    Ed Hohenstein
     6 June 2009

      Orbital Information
  --------------------------
    NSO        =       348
    NMO        =       348
    NRI        =      1048
    NOCC A     =        21
    NOCC B     =        21
    FOCC A     =         6
    FOCC B     =         6
    NVIR A     =       327
    NVIR B     =       327

    Elst10,r            =     0.000012968659 [Eh]
    Exch10              =     0.000000003041 [Eh]
    Exch10 (S^2)        =     0.000000003041 [Eh]

    Iter     Energy [mEh]          dE [mEh]         Residual      Time [s]
       1      -0.00106521       0.001065210       0.363141315             0
       2      -0.00098550      -0.000079712       0.092622390             1
       3      -0.00110034       0.000114847       0.030631529             1
       4      -0.00111109       0.000010748       0.013315031             1
       5      -0.00110765      -0.000003441       0.007199387             2
       6      -0.00110624      -0.000001415       0.002855262             2
       7      -0.00110666       0.000000428       0.001190374             3
       8      -0.00110696       0.000000292       0.000321813             3
       9      -0.00110691      -0.000000051       0.000118922             3
      10      -0.00110687      -0.000000031       0.000036489             4
      11      -0.00110688       0.000000009       0.000018166             4
      12      -0.00110689       0.000000002       0.000007625             4
      13      -0.00110688      -0.000000002       0.000002872             5
      14      -0.00110688      -0.000000000       0.000000868             5

    CHF Iterations converged


    Iter     Energy [mEh]          dE [mEh]         Residual      Time [s]
       1      -0.00061249       0.000612488       0.259866421             1
       2      -0.00057618      -0.000036305       0.073161011             1
       3      -0.00063797       0.000061790       0.027980405             1
       4      -0.00064898       0.000011006       0.009773897             2
       5      -0.00064669      -0.000002288       0.005691651             2
       6      -0.00064570      -0.000000995       0.002239924             2
       7      -0.00064604       0.000000343       0.000884028             3
       8      -0.00064618       0.000000139       0.000293855             3
       9      -0.00064616      -0.000000013       0.000089946             3
      10      -0.00064615      -0.000000019       0.000023140             4
      11      -0.00064615       0.000000003       0.000011084             4
      12      -0.00064615       0.000000002       0.000004778             5
      13      -0.00064615      -0.000000001       0.000002054             5
      14      -0.00064615      -0.000000000       0.000000639             5

    CHF Iterations converged

    Ind20,r (A<-B)      =    -0.000001106884 [Eh]
    Ind20,r (B<-A)      =    -0.000000646150 [Eh]
    Ind20,r             =    -0.000001753033 [Eh]
    Exch-Ind20,r (A<-B) =     0.000000011297 [Eh]
    Exch-Ind20,r (B<-A) =     0.000000004072 [Eh]
    Exch-Ind20,r        =     0.000000015368 [Eh]
    Disp20              =    -0.000050996506 [Eh]
    Disp20 (SS)         =    -0.000025498253 [Eh]
    Disp20 (OS)         =    -0.000025498253 [Eh]
    Exch-Disp20         =     0.000000002482 [Eh]
    Exch-Disp20 (SS)    =     0.000000002074 [Eh]
    Exch-Disp20 (OS)    =     0.000000000408 [Eh]

    SAPT Results
  --------------------------------------------------------------------------------------------------------
    Electrostatics                  0.01296866 [mEh]       0.00813796 [kcal/mol]       0.03404921 [kJ/mol]
      Elst10,r                      0.01296866 [mEh]       0.00813796 [kcal/mol]       0.03404921 [kJ/mol]

    Exchange                        0.00000304 [mEh]       0.00000191 [kcal/mol]       0.00000798 [kJ/mol]
      Exch10                        0.00000304 [mEh]       0.00000191 [kcal/mol]       0.00000798 [kJ/mol]
      Exch10(S^2)                   0.00000304 [mEh]       0.00000191 [kcal/mol]       0.00000798 [kJ/mol]

    Induction                      -0.00179414 [mEh]      -0.00112584 [kcal/mol]      -0.00471050 [kJ/mol]
      Ind20,r                      -0.00175303 [mEh]      -0.00110004 [kcal/mol]      -0.00460259 [kJ/mol]
      Exch-Ind20,r                  0.00001537 [mEh]       0.00000964 [kcal/mol]       0.00004035 [kJ/mol]
      delta HF,r (2)               -0.00005647 [mEh]      -0.00003544 [kcal/mol]      -0.00014827 [kJ/mol]

    Dispersion                     -0.05099402 [mEh]      -0.03199923 [kcal/mol]      -0.13388479 [kJ/mol]
      Disp20                       -0.05099651 [mEh]      -0.03200079 [kcal/mol]      -0.13389131 [kJ/mol]
      Exch-Disp20                   0.00000248 [mEh]       0.00000156 [kcal/mol]       0.00000652 [kJ/mol]
      Disp20 (SS)                  -0.02549825 [mEh]      -0.01600040 [kcal/mol]      -0.06694565 [kJ/mol]
      Disp20 (OS)                  -0.02549825 [mEh]      -0.01600040 [kcal/mol]      -0.06694565 [kJ/mol]
      Exch-Disp20 (SS)              0.00000207 [mEh]       0.00000130 [kcal/mol]       0.00000545 [kJ/mol]
      Exch-Disp20 (OS)              0.00000041 [mEh]       0.00000026 [kcal/mol]       0.00000107 [kJ/mol]

  Total HF                          0.01117756 [mEh]       0.00701403 [kcal/mol]       0.02934669 [kJ/mol]
  Total SAPT0                      -0.03981646 [mEh]      -0.02498521 [kcal/mol]      -0.10453810 [kJ/mol]

  Special recipe for scaled SAPT0 (see Manual):
    Electrostatics sSAPT0           0.01296866 [mEh]       0.00813796 [kcal/mol]       0.03404921 [kJ/mol]
    Exchange sSAPT0                 0.00000304 [mEh]       0.00000191 [kcal/mol]       0.00000798 [kJ/mol]
    Induction sSAPT0               -0.00179414 [mEh]      -0.00112584 [kcal/mol]      -0.00471050 [kJ/mol]
    Dispersion sSAPT0              -0.05099402 [mEh]      -0.03199923 [kcal/mol]      -0.13388479 [kJ/mol]
  Total sSAPT0                     -0.03981646 [mEh]      -0.02498521 [kcal/mol]      -0.10453810 [kJ/mol]
  --------------------------------------------------------------------------------------------------------

*** tstop() called on atl1-1-01-013-7-l.pace.gatech.edu at Mon Nov 29 16:12:42 2021
Module time:
	user time   =      42.28 seconds =       0.70 minutes
	system time =      10.55 seconds =       0.18 minutes
	total time  =         28 seconds =       0.47 minutes
Total time:
	user time   =     123.44 seconds =       2.06 minutes
	system time =      12.88 seconds =       0.21 minutes
	total time  =        117 seconds =       1.95 minutes


Warning! sapt0 does not have an associated derived wavefunction.The returned wavefunction is the dimer SCF wavefunction.


    Psi4 stopped on: Monday, 29 November 2021 04:12PM
    Psi4 wall time for execution: 0:01:57.50

*** Psi4 exiting successfully. Buy a developer a beer!
