
    -----------------------------------------------------------------------
          Psi4: An Open-Source Ab Initio Electronic Structure Package
                               Psi4 1.4.1 release

                         Git: Rev {HEAD} cd00f19


    D. G. A. Smith, L. A. Burns, A. C. Simmonett, R. M. Parrish,
    M. C. Schieber, R. Galvelis, P. Kraus, H. Kruse, R. Di Remigio,
    A. Alenaizan, A. M. James, S. Lehtola, J. P. Misiewicz, M. Scheurer,
    R. A. Shaw, J. B. Schriber, Y. Xie, Z. L. Glick, D. A. Sirianni,
    J. S. O'Brien, J. M. Waldrop, A. Kumar, E. G. Hohenstein,
    B. P. Pritchard, B. R. Brooks, H. F. Schaefer III, A. Yu. Sokolov,
    K. Patkowski, A. E. DePrince III, U. Bozkaya, R. A. King,
    F. A. Evangelista, J. M. Turney, T. D. Crawford, C. D. Sherrill,
    J. Chem. Phys. 152(18) 184108 (2020). https://doi.org/10.1063/5.0006002

                            Additional Code Authors
    E. T. Seidl, C. L. Janssen, E. F. Valeev, M. L. Leininger,
    J. F. Gonthier, R. M. Richard, H. R. McAlexander, M. Saitow, X. Wang,
    P. Verma, and M. H. Lechner

             Previous Authors, Complete List of Code Contributors,
                       and Citations for Specific Modules
    https://github.com/psi4/psi4/blob/master/codemeta.json
    https://github.com/psi4/psi4/graphs/contributors
    http://psicode.org/psi4manual/master/introduction.html#citing-psifour

    -----------------------------------------------------------------------


    Psi4 started on: Monday, 29 November 2021 04:11PM

    Process ID: 322693
    Host:       atl1-1-01-013-10-r.pace.gatech.edu
    PSIDATADIR: /storage/home/hhive1/csargent30/data/miniconda3/envs/psi4/share/psi4
    Memory:     500.0 MiB
    Threads:    2

  ==> Input File <==

--------------------------------------------------------------------------
# PSI4 file produced by CrystaLattE

# Generated from:               pyrazine.xyz
# Psithon input for N-mer:      2mer-0+113
# Number of atoms per monomer:  [10, 10]
# Number of replicas:           4
# COM priority:                 4.787516219980e-05
# Minimum COM separations:      14.574
# Separation priority:          7.608852375567e-05
# Minimum monomer separations:  12.488
# Cutoff priority:              3.224226507857e-06
# Nuclear repulsion energy:     488.9850912395446

memory 7 GB

molecule Dimer_0_113 {
  N           -1.33084758       0.98032658       0.42627037
  N            3.95377333       0.98032658       0.42627037
  H            3.56713674       4.35218569      -0.94230973
  H           -0.94421098       4.35218569      -0.94230973
  H           -0.94421098      -2.39153253       1.79485047
  H            3.56713674      -2.39153253       1.79485047
  C            2.62292576       2.94097974      -0.42627037
  C            0.00000000       2.94097974      -0.42627037
  C            0.00000000      -0.98032658       1.27881112
  C            2.62292576      -0.98032658       1.27881112
--
  N          -18.95329959       0.98032658     -20.73733942
  N          -13.66867868       0.98032658     -20.73733942
  H          -14.05531527       4.35218569     -22.10591952
  H          -18.56666299       4.35218569     -22.10591952
  H          -18.56666299      -2.39153253     -19.36875932
  H          -14.05531527      -2.39153253     -19.36875932
  C          -14.99952625       2.94097974     -21.58988017
  C          -17.62245201       2.94097974     -21.58988017
  C          -17.62245201      -0.98032658     -19.88479867
  C          -14.99952625      -0.98032658     -19.88479867
units = au
no_com
no_reorient
}

set {
  e_convergence 10
  d_convergence 10
  scf_type df
  mp2_type df
  cc_type df
  freeze_core true
}

energy('sapt0/aug-cc-pvdz')

--------------------------------------------------------------------------

  Memory set to   6.519 GiB by Python driver.

Scratch directory: /tmp/

Scratch directory: /tmp/

  //>>>>>>>>>>>>>>>>>>>>>>>>>>>>>>>>>>>//
  //              Dimer HF             //
  //<<<<<<<<<<<<<<<<<<<<<<<<<<<<<<<<<<<//


*** tstart() called on atl1-1-01-013-10-r.pace.gatech.edu
*** at Mon Nov 29 16:11:14 2021

   => Loading Basis Set <=

    Name: AUG-CC-PVDZ
    Role: ORBITAL
    Keyword: BASIS
    atoms 1-2, 11-12  entry N          line   218 file /storage/home/hhive1/csargent30/data/miniconda3/envs/psi4/share/psi4/basis/aug-cc-pvdz.gbs
    atoms 3-6, 13-16  entry H          line    40 file /storage/home/hhive1/csargent30/data/miniconda3/envs/psi4/share/psi4/basis/aug-cc-pvdz.gbs
    atoms 7-10, 17-20 entry C          line   182 file /storage/home/hhive1/csargent30/data/miniconda3/envs/psi4/share/psi4/basis/aug-cc-pvdz.gbs


         ---------------------------------------------------------
                                   SCF
               by Justin Turney, Rob Parrish, Andy Simmonett
                          and Daniel G. A. Smith
                              RHF Reference
                        2 Threads,   6675 MiB Core
         ---------------------------------------------------------

  ==> Geometry <==

    Molecular point group: c1
    Full point group: C1

    Geometry (in Bohr), charge = 0, multiplicity = 1:

       Center              X                  Y                   Z               Mass
    ------------   -----------------  -----------------  -----------------  -----------------
         N           -1.330847580000     0.980326580000     0.426270370000    14.003074004430
         N            3.953773330000     0.980326580000     0.426270370000    14.003074004430
         H            3.567136740000     4.352185690000    -0.942309730000     1.007825032230
         H           -0.944210980000     4.352185690000    -0.942309730000     1.007825032230
         H           -0.944210980000    -2.391532530000     1.794850470000     1.007825032230
         H            3.567136740000    -2.391532530000     1.794850470000     1.007825032230
         C            2.622925760000     2.940979740000    -0.426270370000    12.000000000000
         C            0.000000000000     2.940979740000    -0.426270370000    12.000000000000
         C            0.000000000000    -0.980326580000     1.278811120000    12.000000000000
         C            2.622925760000    -0.980326580000     1.278811120000    12.000000000000
         N          -18.953299590000     0.980326580000   -20.737339420000    14.003074004430
         N          -13.668678680000     0.980326580000   -20.737339420000    14.003074004430
         H          -14.055315270000     4.352185690000   -22.105919520000     1.007825032230
         H          -18.566662990000     4.352185690000   -22.105919520000     1.007825032230
         H          -18.566662990000    -2.391532530000   -19.368759320000     1.007825032230
         H          -14.055315270000    -2.391532530000   -19.368759320000     1.007825032230
         C          -14.999526250000     2.940979740000   -21.589880170000    12.000000000000
         C          -17.622452010000     2.940979740000   -21.589880170000    12.000000000000
         C          -17.622452010000    -0.980326580000   -19.884798670000    12.000000000000
         C          -14.999526250000    -0.980326580000   -19.884798670000    12.000000000000

  Running in c1 symmetry.

  Rotational constants: A =      0.06148  B =      0.00107  C =      0.00106 [cm^-1]
  Rotational constants: A =   1843.02401  B =     31.95763  C =     31.73376 [MHz]
  Nuclear repulsion =  488.985091175817558

  Charge       = 0
  Multiplicity = 1
  Electrons    = 84
  Nalpha       = 42
  Nbeta        = 42

  ==> Algorithm <==

  SCF Algorithm Type is DF.
  DIIS enabled.
  MOM disabled.
  Fractional occupation disabled.
  Guess Type is SAD.
  Energy threshold   = 1.00e-10
  Density threshold  = 1.00e-10
  Integral threshold = 1.00e-12

  ==> Primary Basis <==

  Basis Set: AUG-CC-PVDZ
    Blend: AUG-CC-PVDZ
    Number of shells: 148
    Number of basis functions: 348
    Number of Cartesian functions: 372
    Spherical Harmonics?: true
    Max angular momentum: 2

   => Loading Basis Set <=

    Name: (AUG-CC-PVDZ AUX)
    Role: JKFIT
    Keyword: DF_BASIS_SCF
    atoms 1-2, 11-12  entry N          line   212 file /storage/home/hhive1/csargent30/data/miniconda3/envs/psi4/share/psi4/basis/aug-cc-pvdz-jkfit.gbs
    atoms 3-6, 13-16  entry H          line    70 file /storage/home/hhive1/csargent30/data/miniconda3/envs/psi4/share/psi4/basis/aug-cc-pvdz-jkfit.gbs
    atoms 7-10, 17-20 entry C          line   154 file /storage/home/hhive1/csargent30/data/miniconda3/envs/psi4/share/psi4/basis/aug-cc-pvdz-jkfit.gbs

  ==> Integral Setup <==

  ==> DiskDFJK: Density-Fitted J/K Matrices <==

    J tasked:                  Yes
    K tasked:                  Yes
    wK tasked:                  No
    OpenMP threads:              2
    Integrals threads:           2
    Memory [MiB]:             5006
    Algorithm:                Core
    Integral Cache:           SAVE
    Schwarz Cutoff:          1E-12
    Fitting Condition:       1E-10

   => Auxiliary Basis Set <=

  Basis Set: (AUG-CC-PVDZ AUX)
    Blend: AUG-CC-PVDZ-JKFIT
    Number of shells: 432
    Number of basis functions: 1288
    Number of Cartesian functions: 1492
    Spherical Harmonics?: true
    Max angular momentum: 3

  Minimum eigenvalue in the overlap matrix is 9.4709299441E-06.
  Reciprocal condition number of the overlap matrix is 7.3870059110E-07.
    Using symmetric orthogonalization.

  ==> Pre-Iterations <==

  SCF Guess: Superposition of Atomic Densities via on-the-fly atomic UHF (no occupation information).

   -------------------------
    Irrep   Nso     Nmo
   -------------------------
     A        348     348
   -------------------------
    Total     348     348
   -------------------------

  ==> Iterations <==

                           Total Energy        Delta E     RMS |[F,P]|

   @DF-RHF iter SAD:  -524.65046251343097   -5.24650e+02   0.00000e+00
   @DF-RHF iter   1:  -525.07881494313153   -4.28352e-01   1.58372e-03 DIIS
   @DF-RHF iter   2:  -525.25757599402664   -1.78761e-01   5.80773e-04 DIIS
   @DF-RHF iter   3:  -525.27724540259840   -1.96694e-02   1.81370e-04 DIIS
   @DF-RHF iter   4:  -525.27969489463510   -2.44949e-03   5.34012e-05 DIIS
   @DF-RHF iter   5:  -525.27987409731179   -1.79203e-04   1.06842e-05 DIIS
   @DF-RHF iter   6:  -525.27988719631753   -1.30990e-05   3.46836e-06 DIIS
   @DF-RHF iter   7:  -525.27988910085878   -1.90454e-06   9.05296e-07 DIIS
   @DF-RHF iter   8:  -525.27988924862132   -1.47763e-07   1.40948e-07 DIIS
   @DF-RHF iter   9:  -525.27988925258876   -3.96744e-09   3.12650e-08 DIIS
   @DF-RHF iter  10:  -525.27988925273132   -1.42563e-10   1.59283e-08 DIIS
   @DF-RHF iter  11:  -525.27988925275372   -2.23963e-11   2.87409e-09 DIIS
   @DF-RHF iter  12:  -525.27988925275486   -1.13687e-12   8.90833e-10 DIIS
   @DF-RHF iter  13:  -525.27988925275531   -4.54747e-13   3.85597e-10 DIIS
   @DF-RHF iter  14:  -525.27988925275554   -2.27374e-13   7.96595e-11 DIIS
  Energy and wave function converged.


  ==> Post-Iterations <==

    Orbital Energies [Eh]
    ---------------------

    Doubly Occupied:

       1A    -15.597923     2A    -15.597923     3A    -15.597904
       4A    -15.597904     5A    -11.274091     6A    -11.274091
       7A    -11.274044     8A    -11.274044     9A    -11.272831
      10A    -11.272831    11A    -11.272815    12A    -11.272815
      13A     -1.313197    14A     -1.313197    15A     -1.224026
      16A     -1.224026    17A     -1.076654    18A     -1.076654
      19A     -0.922514    20A     -0.922514    21A     -0.919133
      22A     -0.919133    23A     -0.760488    24A     -0.760488
      25A     -0.738254    26A     -0.738254    27A     -0.706065
      28A     -0.706065    29A     -0.647539    30A     -0.647539
      31A     -0.580562    32A     -0.580562    33A     -0.574219
      34A     -0.574219    35A     -0.496964    36A     -0.496964
      37A     -0.434138    38A     -0.434138    39A     -0.415707
      40A     -0.415707    41A     -0.359773    42A     -0.359773

    Virtual:

      43A      0.034444    44A      0.034804    45A      0.040856
      46A      0.040886    47A      0.047861    48A      0.049153
      49A      0.058713    50A      0.058749    51A      0.067266
      52A      0.067276    53A      0.099569    54A      0.099573
      55A      0.101083    56A      0.101098    57A      0.114352
      58A      0.114366    59A      0.114967    60A      0.115219
      61A      0.123887    62A      0.123945    63A      0.125469
      64A      0.125482    65A      0.128742    66A      0.128850
      67A      0.133044    68A      0.133063    69A      0.158270
      70A      0.158271    71A      0.160441    72A      0.161160
      73A      0.161659    74A      0.161676    75A      0.163256
      76A      0.165450    77A      0.175140    78A      0.175584
      79A      0.186992    80A      0.187172    81A      0.204067
      82A      0.204073    83A      0.212669    84A      0.212725
      85A      0.250660    86A      0.250689    87A      0.267899
      88A      0.267903    89A      0.278208    90A      0.278209
      91A      0.287832    92A      0.288095    93A      0.293334
      94A      0.293347    95A      0.295730    96A      0.296083
      97A      0.314921    98A      0.315022    99A      0.320525
     100A      0.320711   101A      0.355441   102A      0.355693
     103A      0.358049   104A      0.358067   105A      0.364798
     106A      0.364819   107A      0.382225   108A      0.383251
     109A      0.398822   110A      0.399281   111A      0.410031
     112A      0.410052   113A      0.425425   114A      0.425782
     115A      0.434074   116A      0.434080   117A      0.437349
     118A      0.437366   119A      0.451962   120A      0.452543
     121A      0.471620   122A      0.471646   123A      0.492286
     124A      0.492291   125A      0.504973   126A      0.505049
     127A      0.515067   128A      0.515070   129A      0.524675
     130A      0.524710   131A      0.528595   132A      0.529076
     133A      0.554725   134A      0.554728   135A      0.570682
     136A      0.570682   137A      0.587670   138A      0.587693
     139A      0.591593   140A      0.591727   141A      0.593941
     142A      0.593957   143A      0.609066   144A      0.609077
     145A      0.643625   146A      0.643693   147A      0.644443
     148A      0.644497   149A      0.685279   150A      0.685292
     151A      0.687896   152A      0.687924   153A      0.690026
     154A      0.690110   155A      0.690408   156A      0.690602
     157A      0.694968   158A      0.694978   159A      0.703895
     160A      0.704060   161A      0.746674   162A      0.746729
     163A      0.754967   164A      0.754967   165A      0.767053
     166A      0.767181   167A      0.781460   168A      0.781665
     169A      0.799916   170A      0.800007   171A      0.802770
     172A      0.802957   173A      0.819163   174A      0.819173
     175A      0.831221   176A      0.831223   177A      0.847542
     178A      0.847786   179A      0.880691   180A      0.880692
     181A      0.886543   182A      0.886573   183A      0.894834
     184A      0.894837   185A      0.929423   186A      0.929425
     187A      0.939404   188A      0.939841   189A      0.949451
     190A      0.949459   191A      0.996663   192A      0.996943
     193A      0.999049   194A      0.999062   195A      1.013163
     196A      1.013164   197A      1.033466   198A      1.033575
     199A      1.051321   200A      1.051371   201A      1.089527
     202A      1.089530   203A      1.100589   204A      1.100602
     205A      1.122341   206A      1.122359   207A      1.124191
     208A      1.124196   209A      1.134426   210A      1.134602
     211A      1.158733   212A      1.159056   213A      1.173707
     214A      1.173723   215A      1.235563   216A      1.235566
     217A      1.238938   218A      1.238965   219A      1.309802
     220A      1.309847   221A      1.331290   222A      1.331303
     223A      1.414431   224A      1.414432   225A      1.451651
     226A      1.451701   227A      1.486283   228A      1.486285
     229A      1.488202   230A      1.488245   231A      1.499344
     232A      1.499379   233A      1.502979   234A      1.503017
     235A      1.518351   236A      1.518452   237A      1.572836
     238A      1.572836   239A      1.574248   240A      1.574441
     241A      1.587866   242A      1.588116   243A      1.636104
     244A      1.636158   245A      1.640649   246A      1.640656
     247A      1.648085   248A      1.648674   249A      1.676662
     250A      1.676741   251A      1.717141   252A      1.717144
     253A      1.746748   254A      1.746748   255A      1.755247
     256A      1.755260   257A      1.783792   258A      1.784041
     259A      1.815876   260A      1.815877   261A      1.893472
     262A      1.893475   263A      1.916283   264A      1.916287
     265A      1.964970   266A      1.964985   267A      1.987818
     268A      1.987829   269A      2.031344   270A      2.031357
     271A      2.091697   272A      2.091698   273A      2.101135
     274A      2.101224   275A      2.143022   276A      2.143188
     277A      2.163475   278A      2.163536   279A      2.190636
     280A      2.190637   281A      2.193431   282A      2.193473
     283A      2.200524   284A      2.200531   285A      2.202558
     286A      2.202560   287A      2.227756   288A      2.227797
     289A      2.312857   290A      2.312966   291A      2.355368
     292A      2.355388   293A      2.431100   294A      2.431110
     295A      2.439071   296A      2.439186   297A      2.519524
     298A      2.519531   299A      2.522540   300A      2.522547
     301A      2.584891   302A      2.584940   303A      2.606415
     304A      2.606415   305A      2.665371   306A      2.665373
     307A      2.675555   308A      2.675561   309A      2.686523
     310A      2.686569   311A      2.713995   312A      2.714283
     313A      2.718709   314A      2.718773   315A      2.844163
     316A      2.844164   317A      2.865905   318A      2.865914
     319A      2.939340   320A      2.939349   321A      3.002000
     322A      3.002007   323A      3.018020   324A      3.018021
     325A      3.032335   326A      3.032337   327A      3.094269
     328A      3.094303   329A      3.220361   330A      3.220580
     331A      3.256125   332A      3.256131   333A      3.285024
     334A      3.285033   335A      3.366281   336A      3.366296
     337A      3.413512   338A      3.413517   339A      3.515057
     340A      3.515079   341A      3.590798   342A      3.590808
     343A      3.627859   344A      3.627981   345A      3.977382
     346A      3.977390   347A      4.253624   348A      4.253644

    Final Occupation by Irrep:
              A
    DOCC [    42 ]

  @DF-RHF Final Energy:  -525.27988925275554

   => Energetics <=

    Nuclear Repulsion Energy =            488.9850911758175585
    One-Electron Energy =               -1678.6945948166919607
    Two-Electron Energy =                 664.4296143881188073
    Total Energy =                       -525.2798892527555381

Computation Completed


Properties will be evaluated at   0.000000,   0.000000,   0.000000 [a0]

Properties computed using the SCF density matrix

  Nuclear Dipole Moment: [e a0]
     X:  -629.9801      Y:    82.3474      Z:  -853.0649

  Electronic Dipole Moment: [e a0]
     X:   629.9801      Y:   -82.3474      Z:   853.0649

  Dipole Moment: [e a0]
     X:     0.0000      Y:     0.0000      Z:    -0.0000     Total:     0.0000

  Dipole Moment: [D]
     X:     0.0000      Y:     0.0000      Z:    -0.0000     Total:     0.0000


*** tstop() called on atl1-1-01-013-10-r.pace.gatech.edu at Mon Nov 29 16:11:29 2021
Module time:
	user time   =      28.23 seconds =       0.47 minutes
	system time =       1.03 seconds =       0.02 minutes
	total time  =         15 seconds =       0.25 minutes
Total time:
	user time   =      28.23 seconds =       0.47 minutes
	system time =       1.03 seconds =       0.02 minutes
	total time  =         15 seconds =       0.25 minutes

  //>>>>>>>>>>>>>>>>>>>>>>>>>>>>>>>>>>>//
  //            Monomer A HF           //
  //<<<<<<<<<<<<<<<<<<<<<<<<<<<<<<<<<<<//


*** tstart() called on atl1-1-01-013-10-r.pace.gatech.edu
*** at Mon Nov 29 16:11:29 2021

   => Loading Basis Set <=

    Name: AUG-CC-PVDZ
    Role: ORBITAL
    Keyword: BASIS
    atoms 1-2, 11-12  entry N          line   218 file /storage/home/hhive1/csargent30/data/miniconda3/envs/psi4/share/psi4/basis/aug-cc-pvdz.gbs
    atoms 3-6, 13-16  entry H          line    40 file /storage/home/hhive1/csargent30/data/miniconda3/envs/psi4/share/psi4/basis/aug-cc-pvdz.gbs
    atoms 7-10, 17-20 entry C          line   182 file /storage/home/hhive1/csargent30/data/miniconda3/envs/psi4/share/psi4/basis/aug-cc-pvdz.gbs


         ---------------------------------------------------------
                                   SCF
               by Justin Turney, Rob Parrish, Andy Simmonett
                          and Daniel G. A. Smith
                              RHF Reference
                        2 Threads,   6675 MiB Core
         ---------------------------------------------------------

  ==> Geometry <==

    Molecular point group: c1
    Full point group: C1

    Geometry (in Bohr), charge = 0, multiplicity = 1:

       Center              X                  Y                   Z               Mass
    ------------   -----------------  -----------------  -----------------  -----------------
         N           -1.330847580000     0.980326580000     0.426270370000    14.003074004430
         N            3.953773330000     0.980326580000     0.426270370000    14.003074004430
         H            3.567136740000     4.352185690000    -0.942309730000     1.007825032230
         H           -0.944210980000     4.352185690000    -0.942309730000     1.007825032230
         H           -0.944210980000    -2.391532530000     1.794850470000     1.007825032230
         H            3.567136740000    -2.391532530000     1.794850470000     1.007825032230
         C            2.622925760000     2.940979740000    -0.426270370000    12.000000000000
         C            0.000000000000     2.940979740000    -0.426270370000    12.000000000000
         C            0.000000000000    -0.980326580000     1.278811120000    12.000000000000
         C            2.622925760000    -0.980326580000     1.278811120000    12.000000000000
      Gh(N)         -18.953299590000     0.980326580000   -20.737339420000    14.003074004430
      Gh(N)         -13.668678680000     0.980326580000   -20.737339420000    14.003074004430
      Gh(H)         -14.055315270000     4.352185690000   -22.105919520000     1.007825032230
      Gh(H)         -18.566662990000     4.352185690000   -22.105919520000     1.007825032230
      Gh(H)         -18.566662990000    -2.391532530000   -19.368759320000     1.007825032230
      Gh(H)         -14.055315270000    -2.391532530000   -19.368759320000     1.007825032230
      Gh(C)         -14.999526250000     2.940979740000   -21.589880170000    12.000000000000
      Gh(C)         -17.622452010000     2.940979740000   -21.589880170000    12.000000000000
      Gh(C)         -17.622452010000    -0.980326580000   -19.884798670000    12.000000000000
      Gh(C)         -14.999526250000    -0.980326580000   -19.884798670000    12.000000000000

  Running in c1 symmetry.

  Rotational constants: A =      0.06148  B =      0.00107  C =      0.00106 [cm^-1]
  Rotational constants: A =   1843.02401  B =     31.95763  C =     31.73376 [MHz]
  Nuclear repulsion =  212.551731110485349

  Charge       = 0
  Multiplicity = 1
  Electrons    = 42
  Nalpha       = 21
  Nbeta        = 21

  ==> Algorithm <==

  SCF Algorithm Type is DF.
  DIIS enabled.
  MOM disabled.
  Fractional occupation disabled.
  Guess Type is SAD.
  Energy threshold   = 1.00e-10
  Density threshold  = 1.00e-10
  Integral threshold = 1.00e-12

  ==> Primary Basis <==

  Basis Set: AUG-CC-PVDZ
    Blend: AUG-CC-PVDZ
    Number of shells: 148
    Number of basis functions: 348
    Number of Cartesian functions: 372
    Spherical Harmonics?: true
    Max angular momentum: 2

   => Loading Basis Set <=

    Name: (AUG-CC-PVDZ AUX)
    Role: JKFIT
    Keyword: DF_BASIS_SCF
    atoms 1-2, 11-12  entry N          line   212 file /storage/home/hhive1/csargent30/data/miniconda3/envs/psi4/share/psi4/basis/aug-cc-pvdz-jkfit.gbs
    atoms 3-6, 13-16  entry H          line    70 file /storage/home/hhive1/csargent30/data/miniconda3/envs/psi4/share/psi4/basis/aug-cc-pvdz-jkfit.gbs
    atoms 7-10, 17-20 entry C          line   154 file /storage/home/hhive1/csargent30/data/miniconda3/envs/psi4/share/psi4/basis/aug-cc-pvdz-jkfit.gbs

  ==> Integral Setup <==

  ==> DiskDFJK: Density-Fitted J/K Matrices <==

    J tasked:                  Yes
    K tasked:                  Yes
    wK tasked:                  No
    OpenMP threads:              2
    Integrals threads:           2
    Memory [MiB]:             5006
    Algorithm:                Core
    Integral Cache:           LOAD
    Schwarz Cutoff:          1E-12
    Fitting Condition:       1E-10

   => Auxiliary Basis Set <=

  Basis Set: (AUG-CC-PVDZ AUX)
    Blend: AUG-CC-PVDZ-JKFIT
    Number of shells: 432
    Number of basis functions: 1288
    Number of Cartesian functions: 1492
    Spherical Harmonics?: true
    Max angular momentum: 3

  Minimum eigenvalue in the overlap matrix is 9.4709299441E-06.
  Reciprocal condition number of the overlap matrix is 7.3870059110E-07.
    Using symmetric orthogonalization.

  ==> Pre-Iterations <==

  SCF Guess: Superposition of Atomic Densities via on-the-fly atomic UHF (no occupation information).

   -------------------------
    Irrep   Nso     Nmo
   -------------------------
     A        348     348
   -------------------------
    Total     348     348
   -------------------------

  ==> Iterations <==

                           Total Energy        Delta E     RMS |[F,P]|

   @DF-RHF iter SAD:  -262.32523125984085   -2.62325e+02   0.00000e+00
   @DF-RHF iter   1:  -262.53940798657067   -2.14177e-01   1.11985e-03 DIIS
   @DF-RHF iter   2:  -262.62878838206819   -8.93804e-02   4.10664e-04 DIIS
   @DF-RHF iter   3:  -262.63862292692670   -9.83454e-03   1.28248e-04 DIIS
   @DF-RHF iter   4:  -262.63984768015786   -1.22475e-03   3.77599e-05 DIIS
   @DF-RHF iter   5:  -262.63993728062042   -8.96005e-05   7.55558e-06 DIIS
   @DF-RHF iter   6:  -262.63994383087976   -6.55026e-06   2.45264e-06 DIIS
   @DF-RHF iter   7:  -262.63994478325361   -9.52374e-07   6.40130e-07 DIIS
   @DF-RHF iter   8:  -262.63994485714147   -7.38879e-08   9.91693e-08 DIIS
   @DF-RHF iter   9:  -262.63994485912718   -1.98571e-09   1.88228e-08 DIIS
   @DF-RHF iter  10:  -262.63994485919818   -7.09974e-11   3.19151e-09 DIIS
   @DF-RHF iter  11:  -262.63994485920023   -2.04636e-12   5.22318e-10 DIIS
   @DF-RHF iter  12:  -262.63994485920000    2.27374e-13   9.54400e-11 DIIS
  Energy and wave function converged.


  ==> Post-Iterations <==

    Orbital Energies [Eh]
    ---------------------

    Doubly Occupied:

       1A    -15.598072     2A    -15.598053     3A    -11.274239
       4A    -11.274194     5A    -11.272975     6A    -11.272969
       7A     -1.313347     8A     -1.224176     9A     -1.076803
      10A     -0.922662    11A     -0.919282    12A     -0.760637
      13A     -0.738402    14A     -0.706214    15A     -0.647687
      16A     -0.580711    17A     -0.574369    18A     -0.497113
      19A     -0.434288    20A     -0.415855    21A     -0.359924

    Virtual:

      22A      0.022501    23A      0.034475    24A      0.039569
      25A      0.040658    26A      0.041277    27A      0.048406
      28A      0.058591    29A      0.058916    30A      0.067113
      31A      0.079775    32A      0.085116    33A      0.099419
      34A      0.100942    35A      0.104033    36A      0.108586
      37A      0.108911    38A      0.114203    39A      0.114963
      40A      0.122582    41A      0.123782    42A      0.125321
      43A      0.125660    44A      0.128660    45A      0.131039
      46A      0.132890    47A      0.134210    48A      0.152130
      49A      0.152983    50A      0.158223    51A      0.159396
      52A      0.161137    53A      0.161354    54A      0.164016
      55A      0.175168    56A      0.176851    57A      0.186919
      58A      0.197922    59A      0.203909    60A      0.203980
      61A      0.206759    62A      0.212540    63A      0.222466
      64A      0.233687    65A      0.239504    66A      0.250518
      67A      0.255306    68A      0.267756    69A      0.270856
      70A      0.278061    71A      0.287822    72A      0.293209
      73A      0.295755    74A      0.302397    75A      0.314832
      76A      0.320406    77A      0.320761    78A      0.328230
      79A      0.331391    80A      0.344189    81A      0.355432
      82A      0.357909    83A      0.364661    84A      0.380438
      85A      0.382746    86A      0.385717    87A      0.398900
      88A      0.401352    89A      0.409898    90A      0.419335
      91A      0.425019    92A      0.425483    93A      0.433926
      94A      0.437217    95A      0.442007    96A      0.452101
      97A      0.460732    98A      0.461185    99A      0.471483
     100A      0.476162   101A      0.478890   102A      0.492141
     103A      0.504863   104A      0.507891   105A      0.514914
     106A      0.523828   107A      0.524548   108A      0.528692
     109A      0.535807   110A      0.554577   111A      0.557914
     112A      0.561587   113A      0.564567   114A      0.570536
     115A      0.581980   116A      0.587536   117A      0.591510
     118A      0.593800   119A      0.596078   120A      0.608929
     121A      0.615220   122A      0.620239   123A      0.636442
     124A      0.643519   125A      0.644323   126A      0.649429
     127A      0.651567   128A      0.679482   129A      0.685135
     130A      0.685385   131A      0.687760   132A      0.689936
     133A      0.690345   134A      0.694828   135A      0.703834
     136A      0.719960   137A      0.728471   138A      0.746524
     139A      0.746911   140A      0.754817   141A      0.766971
     142A      0.775758   143A      0.781409   144A      0.793706
     145A      0.799815   146A      0.802709   147A      0.811184
     148A      0.812050   149A      0.819016   150A      0.824822
     151A      0.831071   152A      0.847510   153A      0.848139
     154A      0.849263   155A      0.868681   156A      0.880544
     157A      0.886410   158A      0.888226   159A      0.894682
     160A      0.906182   161A      0.929183   162A      0.929273
     163A      0.939477   164A      0.947766   165A      0.949308
     166A      0.970858   167A      0.977007   168A      0.986705
     169A      0.996657   170A      0.998909   171A      1.013015
     172A      1.032488   173A      1.033373   174A      1.047006
     175A      1.051195   176A      1.076338   177A      1.089381
     178A      1.090352   179A      1.100445   180A      1.122199
     181A      1.124044   182A      1.130731   183A      1.134370
     184A      1.140342   185A      1.158746   186A      1.168666
     187A      1.170754   188A      1.173565   189A      1.192299
     190A      1.193315   191A      1.200548   192A      1.222389
     193A      1.235417   194A      1.238805   195A      1.251104
     196A      1.307630   197A      1.309674   198A      1.318339
     199A      1.326486   200A      1.329688   201A      1.331148
     202A      1.346881   203A      1.389288   204A      1.414282
     205A      1.448462   206A      1.451527   207A      1.455533
     208A      1.479208   209A      1.486137   210A      1.487273
     211A      1.488084   212A      1.499212   213A      1.502847
     214A      1.518253   215A      1.572686   216A      1.574196
     217A      1.587841   218A      1.635983   219A      1.640505
     220A      1.648230   221A      1.659315   222A      1.676553
     223A      1.698142   224A      1.716991   225A      1.746598
     226A      1.755104   227A      1.783767   228A      1.815727
     229A      1.893323   230A      1.916137   231A      1.964829
     232A      1.987675   233A      2.031202   234A      2.070303
     235A      2.091548   236A      2.101029   237A      2.102845
     238A      2.119522   239A      2.142956   240A      2.156752
     241A      2.159266   242A      2.163357   243A      2.190489
     244A      2.193304   245A      2.194938   246A      2.200380
     247A      2.202411   248A      2.227626   249A      2.234854
     250A      2.241281   251A      2.249736   252A      2.310091
     253A      2.312762   254A      2.319631   255A      2.355229
     256A      2.384891   257A      2.419285   258A      2.430957
     259A      2.435487   260A      2.438240   261A      2.438981
     262A      2.472754   263A      2.486801   264A      2.498395
     265A      2.519379   266A      2.522395   267A      2.525145
     268A      2.546072   269A      2.568410   270A      2.584768
     271A      2.592451   272A      2.606266   273A      2.626050
     274A      2.665224   275A      2.675409   276A      2.686396
     277A      2.713988   278A      2.716976   279A      2.718592
     280A      2.726730   281A      2.768013   282A      2.844014
     283A      2.865761   284A      2.904117   285A      2.939196
     286A      2.947303   287A      2.955830   288A      2.973421
     289A      3.001855   290A      3.017872   291A      3.032187
     292A      3.058409   293A      3.065307   294A      3.094137
     295A      3.113948   296A      3.220322   297A      3.245807
     298A      3.255980   299A      3.284880   300A      3.289759
     301A      3.322039   302A      3.337819   303A      3.340564
     304A      3.348737   305A      3.351459   306A      3.366140
     307A      3.412708   308A      3.413367   309A      3.470862
     310A      3.502064   311A      3.514920   312A      3.521471
     313A      3.590655   314A      3.604546   315A      3.605757
     316A      3.627771   317A      3.700594   318A      3.819035
     319A      3.830797   320A      3.941078   321A      3.969205
     322A      3.977238   323A      4.011513   324A      4.194868
     325A      4.242364   326A      4.253486   327A      4.442099
     328A      4.546938   329A      4.579386   330A      4.867749
     331A      4.976253   332A      5.057963   333A      5.261821
     334A      5.316650   335A      5.630308   336A      5.691433
     337A      5.827257   338A      5.952741   339A      6.283938
     340A      6.306999   341A      6.453875   342A      6.631309
     343A     18.125828   344A     18.208090   345A     19.017689
     346A     19.343112   347A     25.287170   348A     25.374890

    Final Occupation by Irrep:
              A
    DOCC [    21 ]

  @DF-RHF Final Energy:  -262.63994485920000

   => Energetics <=

    Nuclear Repulsion Energy =            212.5517311104853491
    One-Electron Energy =                -775.4594097086577449
    Two-Electron Energy =                 300.2677337389724244
    Total Energy =                       -262.6399448591999999

Computation Completed


Properties will be evaluated at   0.000000,   0.000000,   0.000000 [a0]

Properties computed using the SCF density matrix

  Nuclear Dipole Moment: [e a0]
     X:    55.0814      Y:    41.1737      Z:    17.9034

  Electronic Dipole Moment: [e a0]
     X:   -55.0814      Y:   -41.1737      Z:   -17.9034

  Dipole Moment: [e a0]
     X:    -0.0000      Y:    -0.0000      Z:    -0.0000     Total:     0.0000

  Dipole Moment: [D]
     X:    -0.0000      Y:    -0.0000      Z:    -0.0000     Total:     0.0000


*** tstop() called on atl1-1-01-013-10-r.pace.gatech.edu at Mon Nov 29 16:11:39 2021
Module time:
	user time   =      17.44 seconds =       0.29 minutes
	system time =       0.46 seconds =       0.01 minutes
	total time  =         10 seconds =       0.17 minutes
Total time:
	user time   =      45.68 seconds =       0.76 minutes
	system time =       1.49 seconds =       0.02 minutes
	total time  =         25 seconds =       0.42 minutes

  //>>>>>>>>>>>>>>>>>>>>>>>>>>>>>>>>>>>//
  //            Monomer B HF           //
  //<<<<<<<<<<<<<<<<<<<<<<<<<<<<<<<<<<<//


*** tstart() called on atl1-1-01-013-10-r.pace.gatech.edu
*** at Mon Nov 29 16:11:39 2021

   => Loading Basis Set <=

    Name: AUG-CC-PVDZ
    Role: ORBITAL
    Keyword: BASIS
    atoms 1-2, 11-12  entry N          line   218 file /storage/home/hhive1/csargent30/data/miniconda3/envs/psi4/share/psi4/basis/aug-cc-pvdz.gbs
    atoms 3-6, 13-16  entry H          line    40 file /storage/home/hhive1/csargent30/data/miniconda3/envs/psi4/share/psi4/basis/aug-cc-pvdz.gbs
    atoms 7-10, 17-20 entry C          line   182 file /storage/home/hhive1/csargent30/data/miniconda3/envs/psi4/share/psi4/basis/aug-cc-pvdz.gbs


         ---------------------------------------------------------
                                   SCF
               by Justin Turney, Rob Parrish, Andy Simmonett
                          and Daniel G. A. Smith
                              RHF Reference
                        2 Threads,   6675 MiB Core
         ---------------------------------------------------------

  ==> Geometry <==

    Molecular point group: c1
    Full point group: C1

    Geometry (in Bohr), charge = 0, multiplicity = 1:

       Center              X                  Y                   Z               Mass
    ------------   -----------------  -----------------  -----------------  -----------------
      Gh(N)          -1.330847580000     0.980326580000     0.426270370000    14.003074004430
      Gh(N)           3.953773330000     0.980326580000     0.426270370000    14.003074004430
      Gh(H)           3.567136740000     4.352185690000    -0.942309730000     1.007825032230
      Gh(H)          -0.944210980000     4.352185690000    -0.942309730000     1.007825032230
      Gh(H)          -0.944210980000    -2.391532530000     1.794850470000     1.007825032230
      Gh(H)           3.567136740000    -2.391532530000     1.794850470000     1.007825032230
      Gh(C)           2.622925760000     2.940979740000    -0.426270370000    12.000000000000
      Gh(C)           0.000000000000     2.940979740000    -0.426270370000    12.000000000000
      Gh(C)           0.000000000000    -0.980326580000     1.278811120000    12.000000000000
      Gh(C)           2.622925760000    -0.980326580000     1.278811120000    12.000000000000
         N          -18.953299590000     0.980326580000   -20.737339420000    14.003074004430
         N          -13.668678680000     0.980326580000   -20.737339420000    14.003074004430
         H          -14.055315270000     4.352185690000   -22.105919520000     1.007825032230
         H          -18.566662990000     4.352185690000   -22.105919520000     1.007825032230
         H          -18.566662990000    -2.391532530000   -19.368759320000     1.007825032230
         H          -14.055315270000    -2.391532530000   -19.368759320000     1.007825032230
         C          -14.999526250000     2.940979740000   -21.589880170000    12.000000000000
         C          -17.622452010000     2.940979740000   -21.589880170000    12.000000000000
         C          -17.622452010000    -0.980326580000   -19.884798670000    12.000000000000
         C          -14.999526250000    -0.980326580000   -19.884798670000    12.000000000000

  Running in c1 symmetry.

  Rotational constants: A =      0.06148  B =      0.00107  C =      0.00106 [cm^-1]
  Rotational constants: A =   1843.02401  B =     31.95763  C =     31.73376 [MHz]
  Nuclear repulsion =  212.551731042300531

  Charge       = 0
  Multiplicity = 1
  Electrons    = 42
  Nalpha       = 21
  Nbeta        = 21

  ==> Algorithm <==

  SCF Algorithm Type is DF.
  DIIS enabled.
  MOM disabled.
  Fractional occupation disabled.
  Guess Type is SAD.
  Energy threshold   = 1.00e-10
  Density threshold  = 1.00e-10
  Integral threshold = 1.00e-12

  ==> Primary Basis <==

  Basis Set: AUG-CC-PVDZ
    Blend: AUG-CC-PVDZ
    Number of shells: 148
    Number of basis functions: 348
    Number of Cartesian functions: 372
    Spherical Harmonics?: true
    Max angular momentum: 2

   => Loading Basis Set <=

    Name: (AUG-CC-PVDZ AUX)
    Role: JKFIT
    Keyword: DF_BASIS_SCF
    atoms 1-2, 11-12  entry N          line   212 file /storage/home/hhive1/csargent30/data/miniconda3/envs/psi4/share/psi4/basis/aug-cc-pvdz-jkfit.gbs
    atoms 3-6, 13-16  entry H          line    70 file /storage/home/hhive1/csargent30/data/miniconda3/envs/psi4/share/psi4/basis/aug-cc-pvdz-jkfit.gbs
    atoms 7-10, 17-20 entry C          line   154 file /storage/home/hhive1/csargent30/data/miniconda3/envs/psi4/share/psi4/basis/aug-cc-pvdz-jkfit.gbs

  ==> Integral Setup <==

  ==> DiskDFJK: Density-Fitted J/K Matrices <==

    J tasked:                  Yes
    K tasked:                  Yes
    wK tasked:                  No
    OpenMP threads:              2
    Integrals threads:           2
    Memory [MiB]:             5006
    Algorithm:                Core
    Integral Cache:           LOAD
    Schwarz Cutoff:          1E-12
    Fitting Condition:       1E-10

   => Auxiliary Basis Set <=

  Basis Set: (AUG-CC-PVDZ AUX)
    Blend: AUG-CC-PVDZ-JKFIT
    Number of shells: 432
    Number of basis functions: 1288
    Number of Cartesian functions: 1492
    Spherical Harmonics?: true
    Max angular momentum: 3

  Minimum eigenvalue in the overlap matrix is 9.4709299441E-06.
  Reciprocal condition number of the overlap matrix is 7.3870059110E-07.
    Using symmetric orthogonalization.

  ==> Pre-Iterations <==

  SCF Guess: Superposition of Atomic Densities via on-the-fly atomic UHF (no occupation information).

   -------------------------
    Irrep   Nso     Nmo
   -------------------------
     A        348     348
   -------------------------
    Total     348     348
   -------------------------

  ==> Iterations <==

                           Total Energy        Delta E     RMS |[F,P]|

   @DF-RHF iter SAD:  -262.32523125202283   -2.62325e+02   0.00000e+00
   @DF-RHF iter   1:  -262.53940798486497   -2.14177e-01   1.11985e-03 DIIS
   @DF-RHF iter   2:  -262.62878838023744   -8.93804e-02   4.10664e-04 DIIS
   @DF-RHF iter   3:  -262.63862292504734   -9.83454e-03   1.28248e-04 DIIS
   @DF-RHF iter   4:  -262.63984767827890   -1.22475e-03   3.77599e-05 DIIS
   @DF-RHF iter   5:  -262.63993727874197   -8.96005e-05   7.55558e-06 DIIS
   @DF-RHF iter   6:  -262.63994382900148   -6.55026e-06   2.45264e-06 DIIS
   @DF-RHF iter   7:  -262.63994478137471   -9.52373e-07   6.40130e-07 DIIS
   @DF-RHF iter   8:  -262.63994485526229   -7.38876e-08   9.91693e-08 DIIS
   @DF-RHF iter   9:  -262.63994485724828   -1.98600e-09   1.88228e-08 DIIS
   @DF-RHF iter  10:  -262.63994485731865   -7.03722e-11   3.19151e-09 DIIS
   @DF-RHF iter  11:  -262.63994485732269   -4.03588e-12   5.22323e-10 DIIS
   @DF-RHF iter  12:  -262.63994485732104    1.64846e-12   9.54957e-11 DIIS
  Energy and wave function converged.


  ==> Post-Iterations <==

    Orbital Energies [Eh]
    ---------------------

    Doubly Occupied:

       1A    -15.598072     2A    -15.598053     3A    -11.274239
       4A    -11.274194     5A    -11.272975     6A    -11.272969
       7A     -1.313347     8A     -1.224176     9A     -1.076803
      10A     -0.922662    11A     -0.919282    12A     -0.760637
      13A     -0.738402    14A     -0.706214    15A     -0.647687
      16A     -0.580711    17A     -0.574369    18A     -0.497113
      19A     -0.434288    20A     -0.415855    21A     -0.359924

    Virtual:

      22A      0.022501    23A      0.034475    24A      0.039569
      25A      0.040658    26A      0.041277    27A      0.048406
      28A      0.058591    29A      0.058916    30A      0.067113
      31A      0.079775    32A      0.085116    33A      0.099419
      34A      0.100942    35A      0.104033    36A      0.108586
      37A      0.108911    38A      0.114203    39A      0.114963
      40A      0.122582    41A      0.123782    42A      0.125321
      43A      0.125660    44A      0.128660    45A      0.131039
      46A      0.132890    47A      0.134210    48A      0.152130
      49A      0.152983    50A      0.158223    51A      0.159396
      52A      0.161137    53A      0.161354    54A      0.164016
      55A      0.175168    56A      0.176851    57A      0.186919
      58A      0.197922    59A      0.203909    60A      0.203980
      61A      0.206759    62A      0.212540    63A      0.222466
      64A      0.233687    65A      0.239504    66A      0.250518
      67A      0.255306    68A      0.267756    69A      0.270856
      70A      0.278060    71A      0.287822    72A      0.293209
      73A      0.295755    74A      0.302397    75A      0.314832
      76A      0.320406    77A      0.320761    78A      0.328230
      79A      0.331391    80A      0.344189    81A      0.355432
      82A      0.357909    83A      0.364661    84A      0.380438
      85A      0.382745    86A      0.385717    87A      0.398900
      88A      0.401352    89A      0.409898    90A      0.419335
      91A      0.425019    92A      0.425483    93A      0.433926
      94A      0.437217    95A      0.442007    96A      0.452101
      97A      0.460732    98A      0.461185    99A      0.471483
     100A      0.476162   101A      0.478890   102A      0.492141
     103A      0.504863   104A      0.507891   105A      0.514914
     106A      0.523828   107A      0.524548   108A      0.528692
     109A      0.535807   110A      0.554577   111A      0.557914
     112A      0.561587   113A      0.564567   114A      0.570536
     115A      0.581980   116A      0.587536   117A      0.591510
     118A      0.593800   119A      0.596078   120A      0.608929
     121A      0.615220   122A      0.620239   123A      0.636442
     124A      0.643519   125A      0.644323   126A      0.649429
     127A      0.651567   128A      0.679482   129A      0.685135
     130A      0.685385   131A      0.687760   132A      0.689936
     133A      0.690345   134A      0.694828   135A      0.703834
     136A      0.719960   137A      0.728471   138A      0.746524
     139A      0.746911   140A      0.754817   141A      0.766971
     142A      0.775758   143A      0.781409   144A      0.793706
     145A      0.799815   146A      0.802709   147A      0.811184
     148A      0.812050   149A      0.819016   150A      0.824822
     151A      0.831071   152A      0.847510   153A      0.848139
     154A      0.849263   155A      0.868681   156A      0.880544
     157A      0.886410   158A      0.888226   159A      0.894682
     160A      0.906182   161A      0.929183   162A      0.929273
     163A      0.939476   164A      0.947766   165A      0.949308
     166A      0.970858   167A      0.977007   168A      0.986705
     169A      0.996657   170A      0.998909   171A      1.013015
     172A      1.032488   173A      1.033373   174A      1.047006
     175A      1.051195   176A      1.076338   177A      1.089381
     178A      1.090352   179A      1.100445   180A      1.122199
     181A      1.124044   182A      1.130731   183A      1.134370
     184A      1.140342   185A      1.158746   186A      1.168666
     187A      1.170754   188A      1.173565   189A      1.192299
     190A      1.193315   191A      1.200548   192A      1.222389
     193A      1.235417   194A      1.238805   195A      1.251104
     196A      1.307630   197A      1.309674   198A      1.318339
     199A      1.326486   200A      1.329688   201A      1.331148
     202A      1.346881   203A      1.389288   204A      1.414282
     205A      1.448462   206A      1.451527   207A      1.455533
     208A      1.479208   209A      1.486137   210A      1.487273
     211A      1.488084   212A      1.499212   213A      1.502847
     214A      1.518253   215A      1.572686   216A      1.574196
     217A      1.587841   218A      1.635983   219A      1.640505
     220A      1.648230   221A      1.659315   222A      1.676553
     223A      1.698142   224A      1.716991   225A      1.746598
     226A      1.755104   227A      1.783767   228A      1.815727
     229A      1.893323   230A      1.916137   231A      1.964829
     232A      1.987675   233A      2.031202   234A      2.070303
     235A      2.091548   236A      2.101029   237A      2.102845
     238A      2.119522   239A      2.142956   240A      2.156752
     241A      2.159266   242A      2.163357   243A      2.190489
     244A      2.193304   245A      2.194938   246A      2.200380
     247A      2.202411   248A      2.227626   249A      2.234854
     250A      2.241281   251A      2.249736   252A      2.310091
     253A      2.312762   254A      2.319631   255A      2.355229
     256A      2.384891   257A      2.419285   258A      2.430957
     259A      2.435487   260A      2.438240   261A      2.438981
     262A      2.472754   263A      2.486801   264A      2.498395
     265A      2.519379   266A      2.522395   267A      2.525145
     268A      2.546072   269A      2.568410   270A      2.584768
     271A      2.592451   272A      2.606266   273A      2.626050
     274A      2.665224   275A      2.675409   276A      2.686396
     277A      2.713988   278A      2.716976   279A      2.718592
     280A      2.726730   281A      2.768013   282A      2.844014
     283A      2.865761   284A      2.904117   285A      2.939196
     286A      2.947303   287A      2.955830   288A      2.973421
     289A      3.001855   290A      3.017872   291A      3.032187
     292A      3.058409   293A      3.065307   294A      3.094137
     295A      3.113948   296A      3.220322   297A      3.245807
     298A      3.255980   299A      3.284880   300A      3.289759
     301A      3.322039   302A      3.337819   303A      3.340564
     304A      3.348737   305A      3.351459   306A      3.366140
     307A      3.412708   308A      3.413367   309A      3.470862
     310A      3.502064   311A      3.514920   312A      3.521471
     313A      3.590655   314A      3.604546   315A      3.605757
     316A      3.627771   317A      3.700594   318A      3.819035
     319A      3.830797   320A      3.941078   321A      3.969205
     322A      3.977238   323A      4.011513   324A      4.194868
     325A      4.242364   326A      4.253486   327A      4.442099
     328A      4.546938   329A      4.579386   330A      4.867749
     331A      4.976253   332A      5.057963   333A      5.261821
     334A      5.316650   335A      5.630308   336A      5.691433
     337A      5.827257   338A      5.952741   339A      6.283938
     340A      6.306999   341A      6.453875   342A      6.631309
     343A     18.125828   344A     18.208090   345A     19.017689
     346A     19.343112   347A     25.287170   348A     25.374890

    Final Occupation by Irrep:
              A
    DOCC [    21 ]

  @DF-RHF Final Energy:  -262.63994485732104

   => Energetics <=

    Nuclear Repulsion Energy =            212.5517310423005313
    One-Electron Energy =                -775.4594095707911947
    Two-Electron Energy =                 300.2677336711696512
    Total Energy =                       -262.6399448573210407

Computation Completed


Properties will be evaluated at   0.000000,   0.000000,   0.000000 [a0]

Properties computed using the SCF density matrix

  Nuclear Dipole Moment: [e a0]
     X:  -685.0615      Y:    41.1737      Z:  -870.9683

  Electronic Dipole Moment: [e a0]
     X:   685.0615      Y:   -41.1737      Z:   870.9683

  Dipole Moment: [e a0]
     X:     0.0000      Y:     0.0000      Z:     0.0000     Total:     0.0000

  Dipole Moment: [D]
     X:     0.0000      Y:     0.0000      Z:     0.0000     Total:     0.0000


*** tstop() called on atl1-1-01-013-10-r.pace.gatech.edu at Mon Nov 29 16:11:48 2021
Module time:
	user time   =      17.36 seconds =       0.29 minutes
	system time =       0.46 seconds =       0.01 minutes
	total time  =          9 seconds =       0.15 minutes
Total time:
	user time   =      63.05 seconds =       1.05 minutes
	system time =       1.96 seconds =       0.03 minutes
	total time  =         34 seconds =       0.57 minutes
  Constructing Basis Sets for SAPT...

   => Loading Basis Set <=

    Name: (AUG-CC-PVDZ AUX)
    Role: RIFIT
    Keyword: DF_BASIS_SAPT
    atoms 1-2, 11-12  entry N          line   158 file /storage/home/hhive1/csargent30/data/miniconda3/envs/psi4/share/psi4/basis/aug-cc-pvdz-ri.gbs
    atoms 3-6, 13-16  entry H          line    30 file /storage/home/hhive1/csargent30/data/miniconda3/envs/psi4/share/psi4/basis/aug-cc-pvdz-ri.gbs
    atoms 7-10, 17-20 entry C          line   112 file /storage/home/hhive1/csargent30/data/miniconda3/envs/psi4/share/psi4/basis/aug-cc-pvdz-ri.gbs


  //>>>>>>>>>>>>>>>>>>>>>>>>>>>>>>>>>>>//
  //               SAPT0               //
  //<<<<<<<<<<<<<<<<<<<<<<<<<<<<<<<<<<<//


*** tstart() called on atl1-1-01-013-10-r.pace.gatech.edu
*** at Mon Nov 29 16:11:49 2021

        SAPT0
    Ed Hohenstein
     6 June 2009

      Orbital Information
  --------------------------
    NSO        =       348
    NMO        =       348
    NRI        =      1048
    NOCC A     =        21
    NOCC B     =        21
    FOCC A     =         6
    FOCC B     =         6
    NVIR A     =       327
    NVIR B     =       327

    Elst10,r            =     0.000000479177 [Eh]
    Exch10              =     0.000000000015 [Eh]
    Exch10 (S^2)        =     0.000000000015 [Eh]

    Iter     Energy [mEh]          dE [mEh]         Residual      Time [s]
       1      -0.00001532       0.000015320       0.043107744             0
       2      -0.00001364      -0.000001682       0.009129073             0
       3      -0.00001485       0.000001215       0.004425446             1
       4      -0.00001514       0.000000292       0.001565655             1
       5      -0.00001504      -0.000000109       0.000644682             1
       6      -0.00001503      -0.000000003       0.000255467             2
       7      -0.00001504       0.000000006       0.000089284             2
       8      -0.00001504       0.000000002       0.000028057             3
       9      -0.00001504      -0.000000000       0.000009283             3
      10      -0.00001504      -0.000000000       0.000002506             3
      11      -0.00001504       0.000000000       0.000001297             4
      12      -0.00001504       0.000000000       0.000000573             4

    CHF Iterations converged


    Iter     Energy [mEh]          dE [mEh]         Residual      Time [s]
       1      -0.00001532       0.000015320       0.043107747             0
       2      -0.00001364      -0.000001682       0.009129073             1
       3      -0.00001485       0.000001215       0.004425446             1
       4      -0.00001514       0.000000292       0.001565655             1
       5      -0.00001504      -0.000000109       0.000644683             2
       6      -0.00001503      -0.000000003       0.000255467             2
       7      -0.00001504       0.000000006       0.000089284             3
       8      -0.00001504       0.000000002       0.000028057             3
       9      -0.00001504      -0.000000000       0.000009283             3
      10      -0.00001504      -0.000000000       0.000002506             4
      11      -0.00001504       0.000000000       0.000001297             4
      12      -0.00001504       0.000000000       0.000000573             4

    CHF Iterations converged

    Ind20,r (A<-B)      =    -0.000000015040 [Eh]
    Ind20,r (B<-A)      =    -0.000000015040 [Eh]
    Ind20,r             =    -0.000000030079 [Eh]
    Exch-Ind20,r (A<-B) =     0.000000000012 [Eh]
    Exch-Ind20,r (B<-A) =     0.000000000012 [Eh]
    Exch-Ind20,r        =     0.000000000024 [Eh]
    Disp20              =    -0.000003720156 [Eh]
    Disp20 (SS)         =    -0.000001860078 [Eh]
    Disp20 (OS)         =    -0.000001860078 [Eh]
    Exch-Disp20         =     0.000000000001 [Eh]
    Exch-Disp20 (SS)    =     0.000000000001 [Eh]
    Exch-Disp20 (OS)    =     0.000000000000 [Eh]

    SAPT Results
  --------------------------------------------------------------------------------------------------------
    Electrostatics                  0.00047918 [mEh]       0.00030069 [kcal/mol]       0.00125808 [kJ/mol]
      Elst10,r                      0.00047918 [mEh]       0.00030069 [kcal/mol]       0.00125808 [kJ/mol]

    Exchange                        0.00000001 [mEh]       0.00000001 [kcal/mol]       0.00000004 [kJ/mol]
      Exch10                        0.00000001 [mEh]       0.00000001 [kcal/mol]       0.00000004 [kJ/mol]
      Exch10(S^2)                   0.00000001 [mEh]       0.00000001 [kcal/mol]       0.00000004 [kJ/mol]

    Induction                      -0.00001543 [mEh]      -0.00000968 [kcal/mol]      -0.00004050 [kJ/mol]
      Ind20,r                      -0.00003008 [mEh]      -0.00001887 [kcal/mol]      -0.00007897 [kJ/mol]
      Exch-Ind20,r                  0.00000002 [mEh]       0.00000002 [kcal/mol]       0.00000006 [kJ/mol]
      delta HF,r (2)                0.00001463 [mEh]       0.00000918 [kcal/mol]       0.00003841 [kJ/mol]

    Dispersion                     -0.00372015 [mEh]      -0.00233443 [kcal/mol]      -0.00976726 [kJ/mol]
      Disp20                       -0.00372016 [mEh]      -0.00233443 [kcal/mol]      -0.00976727 [kJ/mol]
      Exch-Disp20                   0.00000000 [mEh]       0.00000000 [kcal/mol]       0.00000000 [kJ/mol]
      Disp20 (SS)                  -0.00186008 [mEh]      -0.00116722 [kcal/mol]      -0.00488363 [kJ/mol]
      Disp20 (OS)                  -0.00186008 [mEh]      -0.00116722 [kcal/mol]      -0.00488363 [kJ/mol]
      Exch-Disp20 (SS)              0.00000000 [mEh]       0.00000000 [kcal/mol]       0.00000000 [kJ/mol]
      Exch-Disp20 (OS)              0.00000000 [mEh]       0.00000000 [kcal/mol]       0.00000000 [kJ/mol]

  Total HF                          0.00046377 [mEh]       0.00029102 [kcal/mol]       0.00121762 [kJ/mol]
  Total SAPT0                      -0.00325639 [mEh]      -0.00204341 [kcal/mol]      -0.00854965 [kJ/mol]

  Special recipe for scaled SAPT0 (see Manual):
    Electrostatics sSAPT0           0.00047918 [mEh]       0.00030069 [kcal/mol]       0.00125808 [kJ/mol]
    Exchange sSAPT0                 0.00000001 [mEh]       0.00000001 [kcal/mol]       0.00000004 [kJ/mol]
    Induction sSAPT0               -0.00001543 [mEh]      -0.00000968 [kcal/mol]      -0.00004050 [kJ/mol]
    Dispersion sSAPT0              -0.00372015 [mEh]      -0.00233443 [kcal/mol]      -0.00976726 [kJ/mol]
  Total sSAPT0                     -0.00325639 [mEh]      -0.00204341 [kcal/mol]      -0.00854965 [kJ/mol]
  --------------------------------------------------------------------------------------------------------

*** tstop() called on atl1-1-01-013-10-r.pace.gatech.edu at Mon Nov 29 16:12:15 2021
Module time:
	user time   =      40.21 seconds =       0.67 minutes
	system time =       9.31 seconds =       0.16 minutes
	total time  =         26 seconds =       0.43 minutes
Total time:
	user time   =     103.50 seconds =       1.73 minutes
	system time =      11.27 seconds =       0.19 minutes
	total time  =         61 seconds =       1.02 minutes


Warning! sapt0 does not have an associated derived wavefunction.The returned wavefunction is the dimer SCF wavefunction.


    Psi4 stopped on: Monday, 29 November 2021 04:12PM
    Psi4 wall time for execution: 0:01:01.50

*** Psi4 exiting successfully. Buy a developer a beer!
