
    -----------------------------------------------------------------------
          Psi4: An Open-Source Ab Initio Electronic Structure Package
                               Psi4 1.4.1 release

                         Git: Rev {HEAD} cd00f19 


    D. G. A. Smith, L. A. Burns, A. C. Simmonett, R. M. Parrish,
    M. C. Schieber, R. Galvelis, P. Kraus, H. Kruse, R. Di Remigio,
    A. Alenaizan, A. M. James, S. Lehtola, J. P. Misiewicz, M. Scheurer,
    R. A. Shaw, J. B. Schriber, Y. Xie, Z. L. Glick, D. A. Sirianni,
    J. S. O'Brien, J. M. Waldrop, A. Kumar, E. G. Hohenstein,
    B. P. Pritchard, B. R. Brooks, H. F. Schaefer III, A. Yu. Sokolov,
    K. Patkowski, A. E. DePrince III, U. Bozkaya, R. A. King,
    F. A. Evangelista, J. M. Turney, T. D. Crawford, C. D. Sherrill,
    J. Chem. Phys. 152(18) 184108 (2020). https://doi.org/10.1063/5.0006002

                            Additional Code Authors
    E. T. Seidl, C. L. Janssen, E. F. Valeev, M. L. Leininger,
    J. F. Gonthier, R. M. Richard, H. R. McAlexander, M. Saitow, X. Wang,
    P. Verma, and M. H. Lechner

             Previous Authors, Complete List of Code Contributors,
                       and Citations for Specific Modules
    https://github.com/psi4/psi4/blob/master/codemeta.json
    https://github.com/psi4/psi4/graphs/contributors
    http://psicode.org/psi4manual/master/introduction.html#citing-psifour

    -----------------------------------------------------------------------


    Psi4 started on: Monday, 29 November 2021 04:10PM

    Process ID: 46137
    Host:       atl1-1-01-013-8-r.pace.gatech.edu
    PSIDATADIR: /storage/home/hhive1/csargent30/data/miniconda3/envs/psi4/share/psi4
    Memory:     500.0 MiB
    Threads:    2
    
  ==> Input File <==

--------------------------------------------------------------------------
# PSI4 file produced by CrystaLattE

# Generated from:               pyrazine.xyz
# Psithon input for N-mer:      2mer-0+272
# Number of atoms per monomer:  [10, 10]
# Number of replicas:           8
# COM priority:                 1.765182767833e-05
# Minimum COM separations:      20.324 
# Separation priority:          3.528169487682e-05
# Minimum monomer separations:  16.134 
# Cutoff priority:              1.157175561166e-06
# Nuclear repulsion energy:     471.12256991208494

memory 7 GB

molecule Dimer_0_272 {
  N           -1.33084758       0.98032658       0.42627037 
  N            3.95377333       0.98032658       0.42627037 
  H            3.56713674       4.35218569      -0.94230973 
  H           -0.94421098       4.35218569      -0.94230973 
  H           -0.94421098      -2.39153253       1.79485047 
  H            3.56713674      -2.39153253       1.79485047 
  C            2.62292576       2.94097974      -0.42627037 
  C            0.00000000       2.94097974      -0.42627037 
  C            0.00000000      -0.98032658       1.27881112 
  C            2.62292576      -0.98032658       1.27881112 
--
  N          -27.76452559     -26.65786287      -3.10099793 
  N          -22.47990468     -26.65786287      -3.10099793 
  H          -27.37788899     -30.02972198      -4.46957803 
  H          -27.37788899     -23.28600376      -1.73241783 
  H          -22.86654128     -30.02972198      -4.46957803 
  H          -22.86654128     -23.28600376      -1.73241783 
  C          -26.43367802     -28.61851603      -3.95353867 
  C          -26.43367802     -24.69720971      -2.24845718 
  C          -23.81075226     -28.61851603      -3.95353867 
  C          -23.81075226     -24.69720971      -2.24845718 
units = au
no_com
no_reorient
}

set {
  e_convergence 10
  d_convergence 10
  scf_type df
  mp2_type df
  cc_type df
  freeze_core true
}

energy('sapt0/aug-cc-pvdz')

--------------------------------------------------------------------------

  Memory set to   6.519 GiB by Python driver.

Scratch directory: /tmp/

Scratch directory: /tmp/

  //>>>>>>>>>>>>>>>>>>>>>>>>>>>>>>>>>>>//
  //              Dimer HF             //
  //<<<<<<<<<<<<<<<<<<<<<<<<<<<<<<<<<<<//


*** tstart() called on atl1-1-01-013-8-r.pace.gatech.edu
*** at Mon Nov 29 16:10:43 2021

   => Loading Basis Set <=

    Name: AUG-CC-PVDZ
    Role: ORBITAL
    Keyword: BASIS
    atoms 1-2, 11-12  entry N          line   218 file /storage/home/hhive1/csargent30/data/miniconda3/envs/psi4/share/psi4/basis/aug-cc-pvdz.gbs 
    atoms 3-6, 13-16  entry H          line    40 file /storage/home/hhive1/csargent30/data/miniconda3/envs/psi4/share/psi4/basis/aug-cc-pvdz.gbs 
    atoms 7-10, 17-20 entry C          line   182 file /storage/home/hhive1/csargent30/data/miniconda3/envs/psi4/share/psi4/basis/aug-cc-pvdz.gbs 


         ---------------------------------------------------------
                                   SCF
               by Justin Turney, Rob Parrish, Andy Simmonett
                          and Daniel G. A. Smith
                              RHF Reference
                        2 Threads,   6675 MiB Core
         ---------------------------------------------------------

  ==> Geometry <==

    Molecular point group: c1
    Full point group: C1

    Geometry (in Bohr), charge = 0, multiplicity = 1:

       Center              X                  Y                   Z               Mass       
    ------------   -----------------  -----------------  -----------------  -----------------
         N           -1.330847580000     0.980326580000     0.426270370000    14.003074004430
         N            3.953773330000     0.980326580000     0.426270370000    14.003074004430
         H            3.567136740000     4.352185690000    -0.942309730000     1.007825032230
         H           -0.944210980000     4.352185690000    -0.942309730000     1.007825032230
         H           -0.944210980000    -2.391532530000     1.794850470000     1.007825032230
         H            3.567136740000    -2.391532530000     1.794850470000     1.007825032230
         C            2.622925760000     2.940979740000    -0.426270370000    12.000000000000
         C            0.000000000000     2.940979740000    -0.426270370000    12.000000000000
         C            0.000000000000    -0.980326580000     1.278811120000    12.000000000000
         C            2.622925760000    -0.980326580000     1.278811120000    12.000000000000
         N          -27.764525590000   -26.657862870000    -3.100997930000    14.003074004430
         N          -22.479904680000   -26.657862870000    -3.100997930000    14.003074004430
         H          -27.377888990000   -30.029721980000    -4.469578030000     1.007825032230
         H          -27.377888990000   -23.286003760000    -1.732417830000     1.007825032230
         H          -22.866541280000   -30.029721980000    -4.469578030000     1.007825032230
         H          -22.866541280000   -23.286003760000    -1.732417830000     1.007825032230
         C          -26.433678020000   -28.618516030000    -3.953538670000    12.000000000000
         C          -26.433678020000   -24.697209710000    -2.248457180000    12.000000000000
         C          -23.810752260000   -28.618516030000    -3.953538670000    12.000000000000
         C          -23.810752260000   -24.697209710000    -2.248457180000    12.000000000000

  Running in c1 symmetry.

  Rotational constants: A =      0.09496  B =      0.00055  C =      0.00055 [cm^-1]
  Rotational constants: A =   2846.84066  B =     16.55818  C =     16.49091 [MHz]
  Nuclear repulsion =  471.122569939099549

  Charge       = 0
  Multiplicity = 1
  Electrons    = 84
  Nalpha       = 42
  Nbeta        = 42

  ==> Algorithm <==

  SCF Algorithm Type is DF.
  DIIS enabled.
  MOM disabled.
  Fractional occupation disabled.
  Guess Type is SAD.
  Energy threshold   = 1.00e-10
  Density threshold  = 1.00e-10
  Integral threshold = 1.00e-12

  ==> Primary Basis <==

  Basis Set: AUG-CC-PVDZ
    Blend: AUG-CC-PVDZ
    Number of shells: 148
    Number of basis functions: 348
    Number of Cartesian functions: 372
    Spherical Harmonics?: true
    Max angular momentum: 2

   => Loading Basis Set <=

    Name: (AUG-CC-PVDZ AUX)
    Role: JKFIT
    Keyword: DF_BASIS_SCF
    atoms 1-2, 11-12  entry N          line   212 file /storage/home/hhive1/csargent30/data/miniconda3/envs/psi4/share/psi4/basis/aug-cc-pvdz-jkfit.gbs 
    atoms 3-6, 13-16  entry H          line    70 file /storage/home/hhive1/csargent30/data/miniconda3/envs/psi4/share/psi4/basis/aug-cc-pvdz-jkfit.gbs 
    atoms 7-10, 17-20 entry C          line   154 file /storage/home/hhive1/csargent30/data/miniconda3/envs/psi4/share/psi4/basis/aug-cc-pvdz-jkfit.gbs 

  ==> Integral Setup <==

  ==> DiskDFJK: Density-Fitted J/K Matrices <==

    J tasked:                  Yes
    K tasked:                  Yes
    wK tasked:                  No
    OpenMP threads:              2
    Integrals threads:           2
    Memory [MiB]:             5006
    Algorithm:                Core
    Integral Cache:           SAVE
    Schwarz Cutoff:          1E-12
    Fitting Condition:       1E-10

   => Auxiliary Basis Set <=

  Basis Set: (AUG-CC-PVDZ AUX)
    Blend: AUG-CC-PVDZ-JKFIT
    Number of shells: 432
    Number of basis functions: 1288
    Number of Cartesian functions: 1492
    Spherical Harmonics?: true
    Max angular momentum: 3

  Minimum eigenvalue in the overlap matrix is 9.4888015367E-06.
  Reciprocal condition number of the overlap matrix is 7.4009540873E-07.
    Using symmetric orthogonalization.

  ==> Pre-Iterations <==

  SCF Guess: Superposition of Atomic Densities via on-the-fly atomic UHF (no occupation information).

   -------------------------
    Irrep   Nso     Nmo    
   -------------------------
     A        348     348 
   -------------------------
    Total     348     348
   -------------------------

  ==> Iterations <==

                           Total Energy        Delta E     RMS |[F,P]|

   @DF-RHF iter SAD:  -524.65046252079821   -5.24650e+02   0.00000e+00 
   @DF-RHF iter   1:  -525.07881980481898   -4.28357e-01   1.58371e-03 DIIS
   @DF-RHF iter   2:  -525.25758042269808   -1.78761e-01   5.80762e-04 DIIS
   @DF-RHF iter   3:  -525.27724928631949   -1.96689e-02   1.81366e-04 DIIS
   @DF-RHF iter   4:  -525.27969873646077   -2.44945e-03   5.33988e-05 DIIS
   @DF-RHF iter   5:  -525.27987792559213   -1.79189e-04   1.06852e-05 DIIS
   @DF-RHF iter   6:  -525.27989102563026   -1.31000e-05   3.46845e-06 DIIS
   @DF-RHF iter   7:  -525.27989293021528   -1.90459e-06   9.05274e-07 DIIS
   @DF-RHF iter   8:  -525.27989307796906   -1.47754e-07   1.40833e-07 DIIS
   @DF-RHF iter   9:  -525.27989308193503   -3.96597e-09   3.12354e-08 DIIS
   @DF-RHF iter  10:  -525.27989308207475   -1.39721e-10   1.71184e-08 DIIS
   @DF-RHF iter  11:  -525.27989308209669   -2.19416e-11   2.90737e-09 DIIS
   @DF-RHF iter  12:  -525.27989308209953   -2.84217e-12   4.96393e-10 DIIS
   @DF-RHF iter  13:  -525.27989308209862    9.09495e-13   2.28345e-10 DIIS
   @DF-RHF iter  14:  -525.27989308209817    4.54747e-13   5.83892e-11 DIIS
  Energy and wave function converged.


  ==> Post-Iterations <==

    Orbital Energies [Eh]
    ---------------------

    Doubly Occupied:                                                      

       1A    -15.598094     2A    -15.598074     3A    -15.598073  
       4A    -15.598054     5A    -11.274259     6A    -11.274240  
       7A    -11.274214     8A    -11.274195     9A    -11.272995  
      10A    -11.272989    11A    -11.272976    12A    -11.272970  
      13A     -1.313367    14A     -1.313348    15A     -1.224196  
      16A     -1.224177    17A     -1.076823    18A     -1.076804  
      19A     -0.922683    20A     -0.922664    21A     -0.919302  
      22A     -0.919283    23A     -0.760657    24A     -0.760638  
      25A     -0.738421    26A     -0.738402    27A     -0.706234  
      28A     -0.706215    29A     -0.647707    30A     -0.647688  
      31A     -0.580731    32A     -0.580711    33A     -0.574390  
      34A     -0.574371    35A     -0.497135    36A     -0.497116  
      37A     -0.434309    38A     -0.434290    39A     -0.415877  
      40A     -0.415858    41A     -0.359943    42A     -0.359925  

    Virtual:                                                              

      43A      0.034484    44A      0.034504    45A      0.040730  
      46A      0.040751    47A      0.048356    48A      0.048384  
      49A      0.058565    50A      0.058599    51A      0.067095  
      52A      0.067113    53A      0.099400    54A      0.099419  
      55A      0.100930    56A      0.100949    57A      0.114184  
      58A      0.114202    59A      0.114931    60A      0.114949  
      61A      0.123747    62A      0.123781    63A      0.125302  
      64A      0.125320    65A      0.128640    66A      0.128661  
      67A      0.132875    68A      0.132892    69A      0.158187  
      70A      0.158210    71A      0.161071    72A      0.161091  
      73A      0.161296    74A      0.161336    75A      0.163880  
      76A      0.163926    77A      0.175153    78A      0.175184  
      79A      0.186899    80A      0.186918    81A      0.203894  
      82A      0.203912    83A      0.212513    84A      0.212533  
      85A      0.250497    86A      0.250515    87A      0.267731  
      88A      0.267750    89A      0.278031    90A      0.278057  
      91A      0.287790    92A      0.287809    93A      0.293186  
      94A      0.293206    95A      0.295702    96A      0.295758  
      97A      0.314810    98A      0.314831    99A      0.320438  
     100A      0.320456   101A      0.355398   102A      0.355432  
     103A      0.357890   104A      0.357909   105A      0.364639  
     106A      0.364659   107A      0.382558   108A      0.382587  
     109A      0.398875   110A      0.398894   111A      0.409874  
     112A      0.409894   113A      0.425429   114A      0.425457  
     115A      0.433909   116A      0.433928   117A      0.437196  
     118A      0.437217   119A      0.452068   120A      0.452089  
     121A      0.471463   122A      0.471483   123A      0.492120  
     124A      0.492139   125A      0.504843   126A      0.504863  
     127A      0.514896   128A      0.514915   129A      0.524526  
     130A      0.524546   131A      0.528650   132A      0.528668  
     133A      0.554558   134A      0.554577   135A      0.570516  
     136A      0.570535   137A      0.587514   138A      0.587534  
     139A      0.591485   140A      0.591504   141A      0.593778  
     142A      0.593797   143A      0.608908   144A      0.608928  
     145A      0.643494   146A      0.643514   147A      0.644300  
     148A      0.644322   149A      0.685115   150A      0.685135  
     151A      0.687739   152A      0.687758   153A      0.689913  
     154A      0.689932   155A      0.690315   156A      0.690347  
     157A      0.694809   158A      0.694828   159A      0.703803  
     160A      0.703833   161A      0.746540   162A      0.746560  
     163A      0.754799   164A      0.754818   165A      0.766943  
     166A      0.766962   167A      0.781385   168A      0.781403  
     169A      0.799796   170A      0.799816   171A      0.802690  
     172A      0.802709   173A      0.818995   174A      0.819014  
     175A      0.831051   176A      0.831070   177A      0.847491  
     178A      0.847511   179A      0.880524   180A      0.880544  
     181A      0.886390   182A      0.886409   183A      0.894663  
     184A      0.894682   185A      0.929253   186A      0.929272  
     187A      0.939445   188A      0.939465   189A      0.949286  
     190A      0.949306   191A      0.996631   192A      0.996650  
     193A      0.998884   194A      0.998904   195A      1.012993  
     196A      1.013012   197A      1.033349   198A      1.033370  
     199A      1.051175   200A      1.051194   201A      1.089359  
     202A      1.089378   203A      1.100424   204A      1.100443  
     205A      1.122179   206A      1.122198   207A      1.124025  
     208A      1.124044   209A      1.134343   210A      1.134362  
     211A      1.158719   212A      1.158740   213A      1.173544  
     214A      1.173563   215A      1.235395   216A      1.235415  
     217A      1.238784   218A      1.238804   219A      1.309653  
     220A      1.309673   221A      1.331128   222A      1.331147  
     223A      1.414262   224A      1.414282   225A      1.451505  
     226A      1.451524   227A      1.486115   228A      1.486134  
     229A      1.488053   230A      1.488072   231A      1.499191  
     232A      1.499210   233A      1.502826   234A      1.502845  
     235A      1.518233   236A      1.518252   237A      1.572666  
     238A      1.572685   239A      1.574172   240A      1.574191  
     241A      1.587816   242A      1.587835   243A      1.635962  
     244A      1.635981   245A      1.640485   246A      1.640504  
     247A      1.648198   248A      1.648219   249A      1.676532  
     250A      1.676551   251A      1.716970   252A      1.716989  
     253A      1.746578   254A      1.746597   255A      1.755084  
     256A      1.755103   257A      1.783742   258A      1.783761  
     259A      1.815708   260A      1.815727   261A      1.893304  
     262A      1.893323   263A      1.916117   264A      1.916136  
     265A      1.964809   266A      1.964828   267A      1.987654  
     268A      1.987673   269A      2.031182   270A      2.031201  
     271A      2.091529   272A      2.091548   273A      2.101007  
     274A      2.101027   275A      2.142933   276A      2.142952  
     277A      2.163335   278A      2.163354   279A      2.190469  
     280A      2.190488   281A      2.193280   282A      2.193301  
     283A      2.200360   284A      2.200379   285A      2.202391  
     286A      2.202410   287A      2.227606   288A      2.227625  
     289A      2.312740   290A      2.312759   291A      2.355209  
     292A      2.355228   293A      2.430935   294A      2.430955  
     295A      2.438956   296A      2.438975   297A      2.519359  
     298A      2.519378   299A      2.522375   300A      2.522394  
     301A      2.584744   302A      2.584764   303A      2.606245  
     304A      2.606264   305A      2.665204   306A      2.665223  
     307A      2.675388   308A      2.675407   309A      2.686374  
     310A      2.686393   311A      2.713963   312A      2.713984  
     313A      2.718571   314A      2.718590   315A      2.843993  
     316A      2.844012   317A      2.865740   318A      2.865759  
     319A      2.939175   320A      2.939194   321A      3.001835  
     322A      3.001854   323A      3.017851   324A      3.017870  
     325A      3.032165   326A      3.032185   327A      3.094117  
     328A      3.094136   329A      3.220287   330A      3.220323  
     331A      3.255960   332A      3.255979   333A      3.284859  
     334A      3.284878   335A      3.366119   336A      3.366138  
     337A      3.413347   338A      3.413366   339A      3.514899  
     340A      3.514918   341A      3.590635   342A      3.590654  
     343A      3.627748   344A      3.627767   345A      3.977216  
     346A      3.977236   347A      4.253465   348A      4.253484  

    Final Occupation by Irrep:
              A 
    DOCC [    42 ]

  @DF-RHF Final Energy:  -525.27989308209817

   => Energetics <=

    Nuclear Repulsion Energy =            471.1225699390995487
    One-Electron Energy =               -1642.9561240596044627
    Two-Electron Energy =                 646.5536610384067444
    Total Energy =                       -525.2798930820981695

Computation Completed


Properties will be evaluated at   0.000000,   0.000000,   0.000000 [a0]

Properties computed using the SCF density matrix

  Nuclear Dipole Moment: [e a0]
     X: -1000.0516      Y: -1078.4565      Z:  -112.3386

  Electronic Dipole Moment: [e a0]
     X:  1000.0517      Y:  1078.4566      Z:   112.3384

  Dipole Moment: [e a0]
     X:     0.0001      Y:     0.0001      Z:    -0.0001     Total:     0.0002

  Dipole Moment: [D]
     X:     0.0003      Y:     0.0002      Z:    -0.0003     Total:     0.0004


*** tstop() called on atl1-1-01-013-8-r.pace.gatech.edu at Mon Nov 29 16:10:57 2021
Module time:
	user time   =      24.09 seconds =       0.40 minutes
	system time =       0.96 seconds =       0.02 minutes
	total time  =         14 seconds =       0.23 minutes
Total time:
	user time   =      24.09 seconds =       0.40 minutes
	system time =       0.96 seconds =       0.02 minutes
	total time  =         14 seconds =       0.23 minutes

  //>>>>>>>>>>>>>>>>>>>>>>>>>>>>>>>>>>>//
  //            Monomer A HF           //
  //<<<<<<<<<<<<<<<<<<<<<<<<<<<<<<<<<<<//


*** tstart() called on atl1-1-01-013-8-r.pace.gatech.edu
*** at Mon Nov 29 16:10:57 2021

   => Loading Basis Set <=

    Name: AUG-CC-PVDZ
    Role: ORBITAL
    Keyword: BASIS
    atoms 1-2, 11-12  entry N          line   218 file /storage/home/hhive1/csargent30/data/miniconda3/envs/psi4/share/psi4/basis/aug-cc-pvdz.gbs 
    atoms 3-6, 13-16  entry H          line    40 file /storage/home/hhive1/csargent30/data/miniconda3/envs/psi4/share/psi4/basis/aug-cc-pvdz.gbs 
    atoms 7-10, 17-20 entry C          line   182 file /storage/home/hhive1/csargent30/data/miniconda3/envs/psi4/share/psi4/basis/aug-cc-pvdz.gbs 


         ---------------------------------------------------------
                                   SCF
               by Justin Turney, Rob Parrish, Andy Simmonett
                          and Daniel G. A. Smith
                              RHF Reference
                        2 Threads,   6675 MiB Core
         ---------------------------------------------------------

  ==> Geometry <==

    Molecular point group: c1
    Full point group: C1

    Geometry (in Bohr), charge = 0, multiplicity = 1:

       Center              X                  Y                   Z               Mass       
    ------------   -----------------  -----------------  -----------------  -----------------
         N           -1.330847580000     0.980326580000     0.426270370000    14.003074004430
         N            3.953773330000     0.980326580000     0.426270370000    14.003074004430
         H            3.567136740000     4.352185690000    -0.942309730000     1.007825032230
         H           -0.944210980000     4.352185690000    -0.942309730000     1.007825032230
         H           -0.944210980000    -2.391532530000     1.794850470000     1.007825032230
         H            3.567136740000    -2.391532530000     1.794850470000     1.007825032230
         C            2.622925760000     2.940979740000    -0.426270370000    12.000000000000
         C            0.000000000000     2.940979740000    -0.426270370000    12.000000000000
         C            0.000000000000    -0.980326580000     1.278811120000    12.000000000000
         C            2.622925760000    -0.980326580000     1.278811120000    12.000000000000
      Gh(N)         -27.764525590000   -26.657862870000    -3.100997930000    14.003074004430
      Gh(N)         -22.479904680000   -26.657862870000    -3.100997930000    14.003074004430
      Gh(H)         -27.377888990000   -30.029721980000    -4.469578030000     1.007825032230
      Gh(H)         -27.377888990000   -23.286003760000    -1.732417830000     1.007825032230
      Gh(H)         -22.866541280000   -30.029721980000    -4.469578030000     1.007825032230
      Gh(H)         -22.866541280000   -23.286003760000    -1.732417830000     1.007825032230
      Gh(C)         -26.433678020000   -28.618516030000    -3.953538670000    12.000000000000
      Gh(C)         -26.433678020000   -24.697209710000    -2.248457180000    12.000000000000
      Gh(C)         -23.810752260000   -28.618516030000    -3.953538670000    12.000000000000
      Gh(C)         -23.810752260000   -24.697209710000    -2.248457180000    12.000000000000

  Running in c1 symmetry.

  Rotational constants: A =      0.09496  B =      0.00055  C =      0.00055 [cm^-1]
  Rotational constants: A =   2846.84066  B =     16.55818  C =     16.49091 [MHz]
  Nuclear repulsion =  212.551731110485349

  Charge       = 0
  Multiplicity = 1
  Electrons    = 42
  Nalpha       = 21
  Nbeta        = 21

  ==> Algorithm <==

  SCF Algorithm Type is DF.
  DIIS enabled.
  MOM disabled.
  Fractional occupation disabled.
  Guess Type is SAD.
  Energy threshold   = 1.00e-10
  Density threshold  = 1.00e-10
  Integral threshold = 1.00e-12

  ==> Primary Basis <==

  Basis Set: AUG-CC-PVDZ
    Blend: AUG-CC-PVDZ
    Number of shells: 148
    Number of basis functions: 348
    Number of Cartesian functions: 372
    Spherical Harmonics?: true
    Max angular momentum: 2

   => Loading Basis Set <=

    Name: (AUG-CC-PVDZ AUX)
    Role: JKFIT
    Keyword: DF_BASIS_SCF
    atoms 1-2, 11-12  entry N          line   212 file /storage/home/hhive1/csargent30/data/miniconda3/envs/psi4/share/psi4/basis/aug-cc-pvdz-jkfit.gbs 
    atoms 3-6, 13-16  entry H          line    70 file /storage/home/hhive1/csargent30/data/miniconda3/envs/psi4/share/psi4/basis/aug-cc-pvdz-jkfit.gbs 
    atoms 7-10, 17-20 entry C          line   154 file /storage/home/hhive1/csargent30/data/miniconda3/envs/psi4/share/psi4/basis/aug-cc-pvdz-jkfit.gbs 

  ==> Integral Setup <==

  ==> DiskDFJK: Density-Fitted J/K Matrices <==

    J tasked:                  Yes
    K tasked:                  Yes
    wK tasked:                  No
    OpenMP threads:              2
    Integrals threads:           2
    Memory [MiB]:             5006
    Algorithm:                Core
    Integral Cache:           LOAD
    Schwarz Cutoff:          1E-12
    Fitting Condition:       1E-10

   => Auxiliary Basis Set <=

  Basis Set: (AUG-CC-PVDZ AUX)
    Blend: AUG-CC-PVDZ-JKFIT
    Number of shells: 432
    Number of basis functions: 1288
    Number of Cartesian functions: 1492
    Spherical Harmonics?: true
    Max angular momentum: 3

  Minimum eigenvalue in the overlap matrix is 9.4888015367E-06.
  Reciprocal condition number of the overlap matrix is 7.4009540873E-07.
    Using symmetric orthogonalization.

  ==> Pre-Iterations <==

  SCF Guess: Superposition of Atomic Densities via on-the-fly atomic UHF (no occupation information).

   -------------------------
    Irrep   Nso     Nmo    
   -------------------------
     A        348     348 
   -------------------------
    Total     348     348
   -------------------------

  ==> Iterations <==

                           Total Energy        Delta E     RMS |[F,P]|

   @DF-RHF iter SAD:  -262.32523125941441   -2.62325e+02   0.00000e+00 
   @DF-RHF iter   1:  -262.53940798234976   -2.14177e-01   1.11985e-03 DIIS
   @DF-RHF iter   2:  -262.62878837481907   -8.93804e-02   4.10664e-04 DIIS
   @DF-RHF iter   3:  -262.63862291938057   -9.83454e-03   1.28248e-04 DIIS
   @DF-RHF iter   4:  -262.63984767265106   -1.22475e-03   3.77599e-05 DIIS
   @DF-RHF iter   5:  -262.63993727311163   -8.96005e-05   7.55558e-06 DIIS
   @DF-RHF iter   6:  -262.63994382337182   -6.55026e-06   2.45264e-06 DIIS
   @DF-RHF iter   7:  -262.63994477574539   -9.52374e-07   6.40130e-07 DIIS
   @DF-RHF iter   8:  -262.63994484963303   -7.38876e-08   9.91693e-08 DIIS
   @DF-RHF iter   9:  -262.63994485161879   -1.98577e-09   1.88228e-08 DIIS
   @DF-RHF iter  10:  -262.63994485168939   -7.05995e-11   3.19151e-09 DIIS
   @DF-RHF iter  11:  -262.63994485169263   -3.24007e-12   5.22317e-10 DIIS
   @DF-RHF iter  12:  -262.63994485169201    6.25278e-13   9.54309e-11 DIIS
  Energy and wave function converged.


  ==> Post-Iterations <==

    Orbital Energies [Eh]
    ---------------------

    Doubly Occupied:                                                      

       1A    -15.598072     2A    -15.598053     3A    -11.274239  
       4A    -11.274194     5A    -11.272975     6A    -11.272969  
       7A     -1.313347     8A     -1.224176     9A     -1.076803  
      10A     -0.922662    11A     -0.919282    12A     -0.760637  
      13A     -0.738402    14A     -0.706214    15A     -0.647687  
      16A     -0.580711    17A     -0.574369    18A     -0.497113  
      19A     -0.434288    20A     -0.415855    21A     -0.359924  

    Virtual:                                                              

      22A      0.022361    23A      0.034497    24A      0.039443  
      25A      0.040738    26A      0.041099    27A      0.048383  
      28A      0.058590    29A      0.058777    30A      0.067113  
      31A      0.079608    32A      0.084981    33A      0.099419  
      34A      0.100948    35A      0.103920    36A      0.108435  
      37A      0.108773    38A      0.114201    39A      0.114951  
      40A      0.122427    41A      0.123776    42A      0.125322  
      43A      0.125520    44A      0.128661    45A      0.130870  
      46A      0.132889    47A      0.134076    48A      0.152030  
      49A      0.152948    50A      0.158199    51A      0.159268  
      52A      0.161084    53A      0.161326    54A      0.163914  
      55A      0.175179    56A      0.176669    57A      0.186918  
      58A      0.197720    59A      0.203833    60A      0.203908  
      61A      0.206585    62A      0.212538    63A      0.222311  
      64A      0.233532    65A      0.239356    66A      0.250517  
      67A      0.255141    68A      0.267756    69A      0.270698  
      70A      0.278056    71A      0.287812    72A      0.293207  
      73A      0.295749    74A      0.302252    75A      0.314832  
      76A      0.320457    77A      0.320561    78A      0.328082  
      79A      0.331226    80A      0.344036    81A      0.355428  
      82A      0.357908    83A      0.364661    84A      0.380421  
      85A      0.382583    86A      0.385560    87A      0.398891  
      88A      0.401193    89A      0.409895    90A      0.419193  
      91A      0.424876    92A      0.425453    93A      0.433925  
      94A      0.437212    95A      0.441856    96A      0.452092  
      97A      0.460579    98A      0.461028    99A      0.471483  
     100A      0.476009   101A      0.478742   102A      0.492140  
     103A      0.504862   104A      0.507748   105A      0.514914  
     106A      0.523688   107A      0.524547   108A      0.528668  
     109A      0.535658   110A      0.554577   111A      0.557766  
     112A      0.561439   113A      0.564417   114A      0.570535  
     115A      0.581827   116A      0.587535   117A      0.591506  
     118A      0.593799   119A      0.595932   120A      0.608929  
     121A      0.615062   122A      0.620082   123A      0.636287  
     124A      0.643517   125A      0.644321   126A      0.649279  
     127A      0.651413   128A      0.679337   129A      0.685136  
     130A      0.685237   131A      0.687758   132A      0.689932  
     133A      0.690342   134A      0.694828   135A      0.703829  
     136A      0.719815   137A      0.728317   138A      0.746558  
     139A      0.746712   140A      0.754817   141A      0.766965  
     142A      0.775605   143A      0.781406   144A      0.793554  
     145A      0.799815   146A      0.802710   147A      0.811016  
     148A      0.811902   149A      0.819016   150A      0.824672  
     151A      0.831071   152A      0.847513   153A      0.847984  
     154A      0.849106   155A      0.868529   156A      0.880544  
     157A      0.886410   158A      0.888071   159A      0.894682  
     160A      0.906027   161A      0.929035   162A      0.929272  
     163A      0.939466   164A      0.947614   165A      0.949307  
     166A      0.970704   167A      0.976855   168A      0.986556  
     169A      0.996652   170A      0.998908   171A      1.013015  
     172A      1.032342   173A      1.033370   174A      1.046852  
     175A      1.051194   176A      1.076187   177A      1.089381  
     178A      1.090197   179A      1.100445   180A      1.122199  
     181A      1.124044   182A      1.130584   183A      1.134362  
     184A      1.140187   185A      1.158740   186A      1.168512  
     187A      1.170599   188A      1.173565   189A      1.192128  
     190A      1.193161   191A      1.200393   192A      1.222239  
     193A      1.235416   194A      1.238804   195A      1.250949  
     196A      1.307478   197A      1.309674   198A      1.318181  
     199A      1.326335   200A      1.329531   201A      1.331148  
     202A      1.346727   203A      1.389138   204A      1.414282  
     205A      1.448309   206A      1.451526   207A      1.455380  
     208A      1.479055   209A      1.486137   210A      1.487126  
     211A      1.488075   212A      1.499211   213A      1.502846  
     214A      1.518252   215A      1.572686   216A      1.574192  
     217A      1.587836   218A      1.635982   219A      1.640505  
     220A      1.648219   221A      1.659163   222A      1.676552  
     223A      1.697988   224A      1.716991   225A      1.746597  
     226A      1.755104   227A      1.783762   228A      1.815727  
     229A      1.893323   230A      1.916137   231A      1.964829  
     232A      1.987674   233A      2.031202   234A      2.070153  
     235A      2.091548   236A      2.101028   237A      2.102690  
     238A      2.119369   239A      2.142953   240A      2.156602  
     241A      2.159115   242A      2.163355   243A      2.190488  
     244A      2.193301   245A      2.194785   246A      2.200380  
     247A      2.202410   248A      2.227626   249A      2.234700  
     250A      2.241129   251A      2.249586   252A      2.309941  
     253A      2.312761   254A      2.319472   255A      2.355229  
     256A      2.384730   257A      2.419134   258A      2.430957  
     259A      2.435337   260A      2.438091   261A      2.438977  
     262A      2.472602   263A      2.486649   264A      2.498247  
     265A      2.519379   266A      2.522395   267A      2.524993  
     268A      2.545921   269A      2.568253   270A      2.584766  
     271A      2.592298   272A      2.606266   273A      2.625898  
     274A      2.665224   275A      2.675409   276A      2.686395  
     277A      2.713985   278A      2.716823   279A      2.718591  
     280A      2.726576   281A      2.767859   282A      2.844014  
     283A      2.865761   284A      2.903962   285A      2.939196  
     286A      2.947151   287A      2.955675   288A      2.973265  
     289A      3.001855   290A      3.017872   291A      3.032186  
     292A      3.058256   293A      3.065156   294A      3.094137  
     295A      3.113795   296A      3.220316   297A      3.245655  
     298A      3.255980   299A      3.284880   300A      3.289605  
     301A      3.321887   302A      3.337665   303A      3.340413  
     304A      3.348584   305A      3.351306   306A      3.366140  
     307A      3.412555   308A      3.413367   309A      3.470711  
     310A      3.501912   311A      3.514920   312A      3.521317  
     313A      3.590655   314A      3.604392   315A      3.605599  
     316A      3.627769   317A      3.700439   318A      3.818881  
     319A      3.830643   320A      3.940924   321A      3.969052  
     322A      3.977236   323A      4.011359   324A      4.194714  
     325A      4.242207   326A      4.253485   327A      4.441945  
     328A      4.546785   329A      4.579231   330A      4.867594  
     331A      4.976100   332A      5.057808   333A      5.261668  
     334A      5.316496   335A      5.630154   336A      5.691280  
     337A      5.827103   338A      5.952590   339A      6.283784  
     340A      6.306847   341A      6.453724   342A      6.631157  
     343A     18.125675   344A     18.207937   345A     19.017532  
     346A     19.342957   347A     25.287016   348A     25.374736  

    Final Occupation by Irrep:
              A 
    DOCC [    21 ]

  @DF-RHF Final Energy:  -262.63994485169201

   => Energetics <=

    Nuclear Repulsion Energy =            212.5517311104853491
    One-Electron Energy =                -775.4594096319289065
    Two-Electron Energy =                 300.2677336697515784
    Total Energy =                       -262.6399448516920074

Computation Completed


Properties will be evaluated at   0.000000,   0.000000,   0.000000 [a0]

Properties computed using the SCF density matrix

  Nuclear Dipole Moment: [e a0]
     X:    55.0814      Y:    41.1737      Z:    17.9034

  Electronic Dipole Moment: [e a0]
     X:   -55.0814      Y:   -41.1737      Z:   -17.9034

  Dipole Moment: [e a0]
     X:    -0.0000      Y:     0.0000      Z:    -0.0000     Total:     0.0000

  Dipole Moment: [D]
     X:    -0.0000      Y:     0.0000      Z:    -0.0000     Total:     0.0000


*** tstop() called on atl1-1-01-013-8-r.pace.gatech.edu at Mon Nov 29 16:11:05 2021
Module time:
	user time   =      14.91 seconds =       0.25 minutes
	system time =       0.46 seconds =       0.01 minutes
	total time  =          8 seconds =       0.13 minutes
Total time:
	user time   =      39.01 seconds =       0.65 minutes
	system time =       1.42 seconds =       0.02 minutes
	total time  =         22 seconds =       0.37 minutes

  //>>>>>>>>>>>>>>>>>>>>>>>>>>>>>>>>>>>//
  //            Monomer B HF           //
  //<<<<<<<<<<<<<<<<<<<<<<<<<<<<<<<<<<<//


*** tstart() called on atl1-1-01-013-8-r.pace.gatech.edu
*** at Mon Nov 29 16:11:05 2021

   => Loading Basis Set <=

    Name: AUG-CC-PVDZ
    Role: ORBITAL
    Keyword: BASIS
    atoms 1-2, 11-12  entry N          line   218 file /storage/home/hhive1/csargent30/data/miniconda3/envs/psi4/share/psi4/basis/aug-cc-pvdz.gbs 
    atoms 3-6, 13-16  entry H          line    40 file /storage/home/hhive1/csargent30/data/miniconda3/envs/psi4/share/psi4/basis/aug-cc-pvdz.gbs 
    atoms 7-10, 17-20 entry C          line   182 file /storage/home/hhive1/csargent30/data/miniconda3/envs/psi4/share/psi4/basis/aug-cc-pvdz.gbs 


         ---------------------------------------------------------
                                   SCF
               by Justin Turney, Rob Parrish, Andy Simmonett
                          and Daniel G. A. Smith
                              RHF Reference
                        2 Threads,   6675 MiB Core
         ---------------------------------------------------------

  ==> Geometry <==

    Molecular point group: c1
    Full point group: C1

    Geometry (in Bohr), charge = 0, multiplicity = 1:

       Center              X                  Y                   Z               Mass       
    ------------   -----------------  -----------------  -----------------  -----------------
      Gh(N)          -1.330847580000     0.980326580000     0.426270370000    14.003074004430
      Gh(N)           3.953773330000     0.980326580000     0.426270370000    14.003074004430
      Gh(H)           3.567136740000     4.352185690000    -0.942309730000     1.007825032230
      Gh(H)          -0.944210980000     4.352185690000    -0.942309730000     1.007825032230
      Gh(H)          -0.944210980000    -2.391532530000     1.794850470000     1.007825032230
      Gh(H)           3.567136740000    -2.391532530000     1.794850470000     1.007825032230
      Gh(C)           2.622925760000     2.940979740000    -0.426270370000    12.000000000000
      Gh(C)           0.000000000000     2.940979740000    -0.426270370000    12.000000000000
      Gh(C)           0.000000000000    -0.980326580000     1.278811120000    12.000000000000
      Gh(C)           2.622925760000    -0.980326580000     1.278811120000    12.000000000000
         N          -27.764525590000   -26.657862870000    -3.100997930000    14.003074004430
         N          -22.479904680000   -26.657862870000    -3.100997930000    14.003074004430
         H          -27.377888990000   -30.029721980000    -4.469578030000     1.007825032230
         H          -27.377888990000   -23.286003760000    -1.732417830000     1.007825032230
         H          -22.866541280000   -30.029721980000    -4.469578030000     1.007825032230
         H          -22.866541280000   -23.286003760000    -1.732417830000     1.007825032230
         C          -26.433678020000   -28.618516030000    -3.953538670000    12.000000000000
         C          -26.433678020000   -24.697209710000    -2.248457180000    12.000000000000
         C          -23.810752260000   -28.618516030000    -3.953538670000    12.000000000000
         C          -23.810752260000   -24.697209710000    -2.248457180000    12.000000000000

  Running in c1 symmetry.

  Rotational constants: A =      0.09496  B =      0.00055  C =      0.00055 [cm^-1]
  Rotational constants: A =   2846.84066  B =     16.55818  C =     16.49091 [MHz]
  Nuclear repulsion =  212.551731143112903

  Charge       = 0
  Multiplicity = 1
  Electrons    = 42
  Nalpha       = 21
  Nbeta        = 21

  ==> Algorithm <==

  SCF Algorithm Type is DF.
  DIIS enabled.
  MOM disabled.
  Fractional occupation disabled.
  Guess Type is SAD.
  Energy threshold   = 1.00e-10
  Density threshold  = 1.00e-10
  Integral threshold = 1.00e-12

  ==> Primary Basis <==

  Basis Set: AUG-CC-PVDZ
    Blend: AUG-CC-PVDZ
    Number of shells: 148
    Number of basis functions: 348
    Number of Cartesian functions: 372
    Spherical Harmonics?: true
    Max angular momentum: 2

   => Loading Basis Set <=

    Name: (AUG-CC-PVDZ AUX)
    Role: JKFIT
    Keyword: DF_BASIS_SCF
    atoms 1-2, 11-12  entry N          line   212 file /storage/home/hhive1/csargent30/data/miniconda3/envs/psi4/share/psi4/basis/aug-cc-pvdz-jkfit.gbs 
    atoms 3-6, 13-16  entry H          line    70 file /storage/home/hhive1/csargent30/data/miniconda3/envs/psi4/share/psi4/basis/aug-cc-pvdz-jkfit.gbs 
    atoms 7-10, 17-20 entry C          line   154 file /storage/home/hhive1/csargent30/data/miniconda3/envs/psi4/share/psi4/basis/aug-cc-pvdz-jkfit.gbs 

  ==> Integral Setup <==

  ==> DiskDFJK: Density-Fitted J/K Matrices <==

    J tasked:                  Yes
    K tasked:                  Yes
    wK tasked:                  No
    OpenMP threads:              2
    Integrals threads:           2
    Memory [MiB]:             5006
    Algorithm:                Core
    Integral Cache:           LOAD
    Schwarz Cutoff:          1E-12
    Fitting Condition:       1E-10

   => Auxiliary Basis Set <=

  Basis Set: (AUG-CC-PVDZ AUX)
    Blend: AUG-CC-PVDZ-JKFIT
    Number of shells: 432
    Number of basis functions: 1288
    Number of Cartesian functions: 1492
    Spherical Harmonics?: true
    Max angular momentum: 3

  Minimum eigenvalue in the overlap matrix is 9.4888015367E-06.
  Reciprocal condition number of the overlap matrix is 7.4009540873E-07.
    Using symmetric orthogonalization.

  ==> Pre-Iterations <==

  SCF Guess: Superposition of Atomic Densities via on-the-fly atomic UHF (no occupation information).

   -------------------------
    Irrep   Nso     Nmo    
   -------------------------
     A        348     348 
   -------------------------
    Total     348     348
   -------------------------

  ==> Iterations <==

                           Total Energy        Delta E     RMS |[F,P]|

   @DF-RHF iter SAD:  -262.32523126066440   -2.62325e+02   0.00000e+00 
   @DF-RHF iter   1:  -262.53940798046773   -2.14177e-01   1.11985e-03 DIIS
   @DF-RHF iter   2:  -262.62878837294767   -8.93804e-02   4.10664e-04 DIIS
   @DF-RHF iter   3:  -262.63862291746386   -9.83454e-03   1.28248e-04 DIIS
   @DF-RHF iter   4:  -262.63984767072924   -1.22475e-03   3.77599e-05 DIIS
   @DF-RHF iter   5:  -262.63993727118901   -8.96005e-05   7.55558e-06 DIIS
   @DF-RHF iter   6:  -262.63994382144898   -6.55026e-06   2.45264e-06 DIIS
   @DF-RHF iter   7:  -262.63994477382272   -9.52374e-07   6.40130e-07 DIIS
   @DF-RHF iter   8:  -262.63994484771081   -7.38881e-08   9.91693e-08 DIIS
   @DF-RHF iter   9:  -262.63994484969675   -1.98594e-09   1.88228e-08 DIIS
   @DF-RHF iter  10:  -262.63994484976706   -7.03153e-11   3.19151e-09 DIIS
   @DF-RHF iter  11:  -262.63994484976911   -2.04636e-12   5.22317e-10 DIIS
   @DF-RHF iter  12:  -262.63994484976979   -6.82121e-13   9.54304e-11 DIIS
  Energy and wave function converged.


  ==> Post-Iterations <==

    Orbital Energies [Eh]
    ---------------------

    Doubly Occupied:                                                      

       1A    -15.598072     2A    -15.598053     3A    -11.274239  
       4A    -11.274194     5A    -11.272975     6A    -11.272969  
       7A     -1.313347     8A     -1.224176     9A     -1.076803  
      10A     -0.922662    11A     -0.919282    12A     -0.760637  
      13A     -0.738402    14A     -0.706214    15A     -0.647687  
      16A     -0.580711    17A     -0.574369    18A     -0.497113  
      19A     -0.434288    20A     -0.415855    21A     -0.359924  

    Virtual:                                                              

      22A      0.022342    23A      0.034497    24A      0.039423  
      25A      0.040738    26A      0.041078    27A      0.048383  
      28A      0.058590    29A      0.058755    30A      0.067113  
      31A      0.079592    32A      0.084961    33A      0.099419  
      34A      0.100948    35A      0.103898    36A      0.108417  
      37A      0.108753    38A      0.114201    39A      0.114951  
      40A      0.122410    41A      0.123776    42A      0.125322  
      43A      0.125500    44A      0.128661    45A      0.130853  
      46A      0.132889    47A      0.134055    48A      0.152008  
      49A      0.152928    50A      0.158199    51A      0.159250  
      52A      0.161084    53A      0.161326    54A      0.163914  
      55A      0.175179    56A      0.176647    57A      0.186918  
      58A      0.197700    59A      0.203815    60A      0.203908  
      61A      0.206567    62A      0.212538    63A      0.222292  
      64A      0.233512    65A      0.239336    66A      0.250517  
      67A      0.255123    68A      0.267756    69A      0.270679  
      70A      0.278056    71A      0.287812    72A      0.293207  
      73A      0.295749    74A      0.302233    75A      0.314832  
      76A      0.320457    77A      0.320540    78A      0.328062  
      79A      0.331208    80A      0.344016    81A      0.355428  
      82A      0.357908    83A      0.364661    84A      0.380401  
      85A      0.382583    86A      0.385542    87A      0.398891  
      88A      0.401173    89A      0.409895    90A      0.419173  
      91A      0.424857    92A      0.425453    93A      0.433925  
      94A      0.437212    95A      0.441837    96A      0.452092  
      97A      0.460560    98A      0.461009    99A      0.471483  
     100A      0.475990   101A      0.478722   102A      0.492140  
     103A      0.504862   104A      0.507728   105A      0.514914  
     106A      0.523667   107A      0.524547   108A      0.528668  
     109A      0.535639   110A      0.554577   111A      0.557746  
     112A      0.561420   113A      0.564398   114A      0.570535  
     115A      0.581807   116A      0.587535   117A      0.591506  
     118A      0.593799   119A      0.595911   120A      0.608929  
     121A      0.615043   122A      0.620063   123A      0.636268  
     124A      0.643517   125A      0.644321   126A      0.649260  
     127A      0.651395   128A      0.679317   129A      0.685136  
     130A      0.685217   131A      0.687758   132A      0.689932  
     133A      0.690342   134A      0.694828   135A      0.703829  
     136A      0.719796   137A      0.728298   138A      0.746558  
     139A      0.746694   140A      0.754817   141A      0.766965  
     142A      0.775586   143A      0.781406   144A      0.793535  
     145A      0.799815   146A      0.802710   147A      0.810997  
     148A      0.811883   149A      0.819016   150A      0.824653  
     151A      0.831071   152A      0.847513   153A      0.847965  
     154A      0.849087   155A      0.868510   156A      0.880544  
     157A      0.886410   158A      0.888052   159A      0.894682  
     160A      0.906008   161A      0.929015   162A      0.929272  
     163A      0.939466   164A      0.947595   165A      0.949307  
     166A      0.970685   167A      0.976836   168A      0.986537  
     169A      0.996652   170A      0.998908   171A      1.013015  
     172A      1.032323   173A      1.033370   174A      1.046833  
     175A      1.051194   176A      1.076168   177A      1.089381  
     178A      1.090178   179A      1.100445   180A      1.122199  
     181A      1.124044   182A      1.130565   183A      1.134362  
     184A      1.140168   185A      1.158740   186A      1.168493  
     187A      1.170580   188A      1.173565   189A      1.192109  
     190A      1.193142   191A      1.200375   192A      1.222220  
     193A      1.235416   194A      1.238804   195A      1.250930  
     196A      1.307459   197A      1.309674   198A      1.318163  
     199A      1.326315   200A      1.329512   201A      1.331148  
     202A      1.346708   203A      1.389119   204A      1.414282  
     205A      1.448289   206A      1.451526   207A      1.455361  
     208A      1.479036   209A      1.486137   210A      1.487107  
     211A      1.488075   212A      1.499211   213A      1.502846  
     214A      1.518252   215A      1.572686   216A      1.574192  
     217A      1.587836   218A      1.635982   219A      1.640505  
     220A      1.648219   221A      1.659144   222A      1.676552  
     223A      1.697969   224A      1.716991   225A      1.746597  
     226A      1.755104   227A      1.783762   228A      1.815727  
     229A      1.893323   230A      1.916137   231A      1.964829  
     232A      1.987674   233A      2.031202   234A      2.070134  
     235A      2.091548   236A      2.101028   237A      2.102671  
     238A      2.119351   239A      2.142953   240A      2.156583  
     241A      2.159096   242A      2.163355   243A      2.190488  
     244A      2.193301   245A      2.194766   246A      2.200380  
     247A      2.202410   248A      2.227626   249A      2.234682  
     250A      2.241110   251A      2.249567   252A      2.309922  
     253A      2.312761   254A      2.319454   255A      2.355229  
     256A      2.384711   257A      2.419115   258A      2.430957  
     259A      2.435318   260A      2.438072   261A      2.438977  
     262A      2.472583   263A      2.486630   264A      2.498228  
     265A      2.519379   266A      2.522395   267A      2.524974  
     268A      2.545902   269A      2.568234   270A      2.584766  
     271A      2.592279   272A      2.606266   273A      2.625879  
     274A      2.665224   275A      2.675409   276A      2.686395  
     277A      2.713985   278A      2.716805   279A      2.718591  
     280A      2.726557   281A      2.767840   282A      2.844014  
     283A      2.865761   284A      2.903943   285A      2.939196  
     286A      2.947132   287A      2.955656   288A      2.973246  
     289A      3.001855   290A      3.017872   291A      3.032186  
     292A      3.058237   293A      3.065137   294A      3.094137  
     295A      3.113776   296A      3.220316   297A      3.245636  
     298A      3.255980   299A      3.284880   300A      3.289586  
     301A      3.321869   302A      3.337646   303A      3.340393  
     304A      3.348565   305A      3.351287   306A      3.366140  
     307A      3.412537   308A      3.413367   309A      3.470692  
     310A      3.501893   311A      3.514920   312A      3.521298  
     313A      3.590655   314A      3.604373   315A      3.605580  
     316A      3.627769   317A      3.700420   318A      3.818862  
     319A      3.830624   320A      3.940905   321A      3.969033  
     322A      3.977236   323A      4.011340   324A      4.194695  
     325A      4.242188   326A      4.253485   327A      4.441926  
     328A      4.546766   329A      4.579213   330A      4.867575  
     331A      4.976081   332A      5.057789   333A      5.261649  
     334A      5.316478   335A      5.630135   336A      5.691261  
     337A      5.827084   338A      5.952571   339A      6.283765  
     340A      6.306828   341A      6.453705   342A      6.631138  
     343A     18.125656   344A     18.207918   345A     19.017513  
     346A     19.342939   347A     25.286997   348A     25.374717  

    Final Occupation by Irrep:
              A 
    DOCC [    21 ]

  @DF-RHF Final Energy:  -262.63994484976979

   => Energetics <=

    Nuclear Repulsion Energy =            212.5517311431129031
    One-Electron Energy =                -775.4594096889165940
    Two-Electron Energy =                 300.2677336960339289
    Total Energy =                       -262.6399448497697904

Computation Completed


Properties will be evaluated at   0.000000,   0.000000,   0.000000 [a0]

Properties computed using the SCF density matrix

  Nuclear Dipole Moment: [e a0]
     X: -1055.1330      Y: -1119.6302      Z:  -130.2419

  Electronic Dipole Moment: [e a0]
     X:  1055.1330      Y:  1119.6302      Z:   130.2419

  Dipole Moment: [e a0]
     X:     0.0000      Y:    -0.0000      Z:    -0.0000     Total:     0.0000

  Dipole Moment: [D]
     X:     0.0000      Y:    -0.0000      Z:    -0.0000     Total:     0.0000


*** tstop() called on atl1-1-01-013-8-r.pace.gatech.edu at Mon Nov 29 16:11:13 2021
Module time:
	user time   =      14.82 seconds =       0.25 minutes
	system time =       0.48 seconds =       0.01 minutes
	total time  =          8 seconds =       0.13 minutes
Total time:
	user time   =      53.84 seconds =       0.90 minutes
	system time =       1.90 seconds =       0.03 minutes
	total time  =         30 seconds =       0.50 minutes
  Constructing Basis Sets for SAPT...

   => Loading Basis Set <=

    Name: (AUG-CC-PVDZ AUX)
    Role: RIFIT
    Keyword: DF_BASIS_SAPT
    atoms 1-2, 11-12  entry N          line   158 file /storage/home/hhive1/csargent30/data/miniconda3/envs/psi4/share/psi4/basis/aug-cc-pvdz-ri.gbs 
    atoms 3-6, 13-16  entry H          line    30 file /storage/home/hhive1/csargent30/data/miniconda3/envs/psi4/share/psi4/basis/aug-cc-pvdz-ri.gbs 
    atoms 7-10, 17-20 entry C          line   112 file /storage/home/hhive1/csargent30/data/miniconda3/envs/psi4/share/psi4/basis/aug-cc-pvdz-ri.gbs 


  //>>>>>>>>>>>>>>>>>>>>>>>>>>>>>>>>>>>//
  //               SAPT0               //
  //<<<<<<<<<<<<<<<<<<<<<<<<<<<<<<<<<<<//


*** tstart() called on atl1-1-01-013-8-r.pace.gatech.edu
*** at Mon Nov 29 16:11:13 2021

        SAPT0  
    Ed Hohenstein
     6 June 2009

      Orbital Information
  --------------------------
    NSO        =       348
    NMO        =       348
    NRI        =      1048
    NOCC A     =        21
    NOCC B     =        21
    FOCC A     =         6
    FOCC B     =         6
    NVIR A     =       327
    NVIR B     =       327

    Elst10,r            =    -0.000003383048 [Eh]
    Exch10              =     0.000000000000 [Eh]
    Exch10 (S^2)        =     0.000000000000 [Eh]

    Iter     Energy [mEh]          dE [mEh]         Residual      Time [s]
       1      -0.00000184       0.000001840       0.015896615             0
       2      -0.00000164      -0.000000196       0.003701317             1
       3      -0.00000180       0.000000160       0.001475629             1
       4      -0.00000183       0.000000029       0.000417457             2
       5      -0.00000183      -0.000000004       0.000217332             2
       6      -0.00000183      -0.000000003       0.000088613             2
       7      -0.00000183       0.000000000       0.000040137             3
       8      -0.00000183       0.000000000       0.000012781             3
       9      -0.00000183      -0.000000000       0.000004118             3
      10      -0.00000183      -0.000000000       0.000001356             4
      11      -0.00000183       0.000000000       0.000000489             4

    CHF Iterations converged


    Iter     Energy [mEh]          dE [mEh]         Residual      Time [s]
       1      -0.00000154       0.000001542       0.014006728             0
       2      -0.00000138      -0.000000161       0.003315746             1
       3      -0.00000150       0.000000118       0.001473187             1
       4      -0.00000153       0.000000032       0.000423533             2
       5      -0.00000153      -0.000000003       0.000259923             2
       6      -0.00000152      -0.000000003       0.000095436             2
       7      -0.00000152       0.000000001       0.000036169             3
       8      -0.00000153       0.000000000       0.000011328             3
       9      -0.00000153      -0.000000000       0.000003549             3
      10      -0.00000153      -0.000000000       0.000001170             4
      11      -0.00000153       0.000000000       0.000000404             4

    CHF Iterations converged

    Ind20,r (A<-B)      =    -0.000000001827 [Eh]
    Ind20,r (B<-A)      =    -0.000000001525 [Eh]
    Ind20,r             =    -0.000000003352 [Eh]
    Exch-Ind20,r (A<-B) =     0.000000000000 [Eh]
    Exch-Ind20,r (B<-A) =     0.000000000000 [Eh]
    Exch-Ind20,r        =     0.000000000000 [Eh]
    Disp20              =    -0.000000602178 [Eh]
    Disp20 (SS)         =    -0.000000301089 [Eh]
    Disp20 (OS)         =    -0.000000301089 [Eh]
    Exch-Disp20         =     0.000000000000 [Eh]
    Exch-Disp20 (SS)    =     0.000000000000 [Eh]
    Exch-Disp20 (OS)    =     0.000000000000 [Eh]

    SAPT Results 
  --------------------------------------------------------------------------------------------------------
    Electrostatics                 -0.00338305 [mEh]      -0.00212289 [kcal/mol]      -0.00888219 [kJ/mol]
      Elst10,r                     -0.00338305 [mEh]      -0.00212289 [kcal/mol]      -0.00888219 [kJ/mol]

    Exchange                        0.00000000 [mEh]       0.00000000 [kcal/mol]       0.00000000 [kJ/mol]
      Exch10                        0.00000000 [mEh]       0.00000000 [kcal/mol]       0.00000000 [kJ/mol]
      Exch10(S^2)                   0.00000000 [mEh]       0.00000000 [kcal/mol]       0.00000000 [kJ/mol]

    Induction                       0.00000241 [mEh]       0.00000151 [kcal/mol]       0.00000633 [kJ/mol]
      Ind20,r                      -0.00000335 [mEh]      -0.00000210 [kcal/mol]      -0.00000880 [kJ/mol]
      Exch-Ind20,r                  0.00000000 [mEh]       0.00000000 [kcal/mol]       0.00000000 [kJ/mol]
      delta HF,r (2)                0.00000576 [mEh]       0.00000362 [kcal/mol]       0.00001513 [kJ/mol]

    Dispersion                     -0.00060218 [mEh]      -0.00037787 [kcal/mol]      -0.00158102 [kJ/mol]
      Disp20                       -0.00060218 [mEh]      -0.00037787 [kcal/mol]      -0.00158102 [kJ/mol]
      Exch-Disp20                   0.00000000 [mEh]       0.00000000 [kcal/mol]       0.00000000 [kJ/mol]
      Disp20 (SS)                  -0.00030109 [mEh]      -0.00018894 [kcal/mol]      -0.00079051 [kJ/mol]
      Disp20 (OS)                  -0.00030109 [mEh]      -0.00018894 [kcal/mol]      -0.00079051 [kJ/mol]
      Exch-Disp20 (SS)              0.00000000 [mEh]       0.00000000 [kcal/mol]       0.00000000 [kJ/mol]
      Exch-Disp20 (OS)              0.00000000 [mEh]       0.00000000 [kcal/mol]       0.00000000 [kJ/mol]

  Total HF                         -0.00338064 [mEh]      -0.00212138 [kcal/mol]      -0.00887586 [kJ/mol]
  Total SAPT0                      -0.00398281 [mEh]      -0.00249925 [kcal/mol]      -0.01045688 [kJ/mol]

  Special recipe for scaled SAPT0 (see Manual):
    Electrostatics sSAPT0          -0.00338305 [mEh]      -0.00212289 [kcal/mol]      -0.00888219 [kJ/mol]
    Exchange sSAPT0                 0.00000000 [mEh]       0.00000000 [kcal/mol]       0.00000000 [kJ/mol]
    Induction sSAPT0                0.00000241 [mEh]       0.00000151 [kcal/mol]       0.00000633 [kJ/mol]
    Dispersion sSAPT0              -0.00060218 [mEh]      -0.00037787 [kcal/mol]      -0.00158102 [kJ/mol]
  Total sSAPT0                     -0.00398281 [mEh]      -0.00249925 [kcal/mol]      -0.01045688 [kJ/mol]
  --------------------------------------------------------------------------------------------------------

*** tstop() called on atl1-1-01-013-8-r.pace.gatech.edu at Mon Nov 29 16:11:58 2021
Module time:
	user time   =      37.41 seconds =       0.62 minutes
	system time =       8.75 seconds =       0.15 minutes
	total time  =         45 seconds =       0.75 minutes
Total time:
	user time   =      91.50 seconds =       1.52 minutes
	system time =      10.66 seconds =       0.18 minutes
	total time  =         75 seconds =       1.25 minutes


Warning! sapt0 does not have an associated derived wavefunction.The returned wavefunction is the dimer SCF wavefunction.


    Psi4 stopped on: Monday, 29 November 2021 04:11PM
    Psi4 wall time for execution: 0:01:15.34

*** Psi4 exiting successfully. Buy a developer a beer!
