
    -----------------------------------------------------------------------
          Psi4: An Open-Source Ab Initio Electronic Structure Package
                               Psi4 1.4.1 release

                         Git: Rev {HEAD} cd00f19 


    D. G. A. Smith, L. A. Burns, A. C. Simmonett, R. M. Parrish,
    M. C. Schieber, R. Galvelis, P. Kraus, H. Kruse, R. Di Remigio,
    A. Alenaizan, A. M. James, S. Lehtola, J. P. Misiewicz, M. Scheurer,
    R. A. Shaw, J. B. Schriber, Y. Xie, Z. L. Glick, D. A. Sirianni,
    J. S. O'Brien, J. M. Waldrop, A. Kumar, E. G. Hohenstein,
    B. P. Pritchard, B. R. Brooks, H. F. Schaefer III, A. Yu. Sokolov,
    K. Patkowski, A. E. DePrince III, U. Bozkaya, R. A. King,
    F. A. Evangelista, J. M. Turney, T. D. Crawford, C. D. Sherrill,
    J. Chem. Phys. 152(18) 184108 (2020). https://doi.org/10.1063/5.0006002

                            Additional Code Authors
    E. T. Seidl, C. L. Janssen, E. F. Valeev, M. L. Leininger,
    J. F. Gonthier, R. M. Richard, H. R. McAlexander, M. Saitow, X. Wang,
    P. Verma, and M. H. Lechner

             Previous Authors, Complete List of Code Contributors,
                       and Citations for Specific Modules
    https://github.com/psi4/psi4/blob/master/codemeta.json
    https://github.com/psi4/psi4/graphs/contributors
    http://psicode.org/psi4manual/master/introduction.html#citing-psifour

    -----------------------------------------------------------------------


    Psi4 started on: Monday, 29 November 2021 04:11PM

    Process ID: 23551
    Host:       atl1-1-01-013-11-r.pace.gatech.edu
    PSIDATADIR: /storage/home/hhive1/csargent30/data/miniconda3/envs/psi4/share/psi4
    Memory:     500.0 MiB
    Threads:    2
    
  ==> Input File <==

--------------------------------------------------------------------------
# PSI4 file produced by CrystaLattE

# Generated from:               pyrazine.xyz
# Psithon input for N-mer:      2mer-0+147
# Number of atoms per monomer:  [10, 10]
# Number of replicas:           8
# COM priority:                 3.229012231220e-05
# Minimum COM separations:      16.618 
# Separation priority:          6.980695895369e-05
# Minimum monomer separations:  12.852 
# Cutoff priority:              2.874296892031e-06
# Nuclear repulsion energy:     481.4581363570577

memory 7 GB

molecule Dimer_0_147 {
  N           -1.33084758       0.98032658       0.42627037 
  N            3.95377333       0.98032658       0.42627037 
  H            3.56713674       4.35218569      -0.94230973 
  H           -0.94421098       4.35218569      -0.94230973 
  H           -0.94421098      -2.39153253       1.79485047 
  H            3.56713674      -2.39153253       1.79485047 
  C            2.62292576       2.94097974      -0.42627037 
  C            0.00000000       2.94097974      -0.42627037 
  C            0.00000000      -0.98032658       1.27881112 
  C            2.62292576      -0.98032658       1.27881112 
--
  N          -27.76452559     -15.60258709      -3.10099793 
  N          -22.47990468     -15.60258709      -3.10099793 
  H          -27.37788899     -18.97444620      -4.46957803 
  H          -27.37788899     -12.23072798      -1.73241783 
  H          -22.86654128     -18.97444620      -4.46957803 
  H          -22.86654128     -12.23072798      -1.73241783 
  C          -26.43367802     -17.56324025      -3.95353867 
  C          -26.43367802     -13.64193393      -2.24845718 
  C          -23.81075226     -17.56324025      -3.95353867 
  C          -23.81075226     -13.64193393      -2.24845718 
units = au
no_com
no_reorient
}

set {
  e_convergence 10
  d_convergence 10
  scf_type df
  mp2_type df
  cc_type df
  freeze_core true
}

energy('sapt0/aug-cc-pvdz')

--------------------------------------------------------------------------

  Memory set to   6.519 GiB by Python driver.

Scratch directory: /tmp/

Scratch directory: /tmp/

  //>>>>>>>>>>>>>>>>>>>>>>>>>>>>>>>>>>>//
  //              Dimer HF             //
  //<<<<<<<<<<<<<<<<<<<<<<<<<<<<<<<<<<<//


*** tstart() called on atl1-1-01-013-11-r.pace.gatech.edu
*** at Mon Nov 29 16:11:16 2021

   => Loading Basis Set <=

    Name: AUG-CC-PVDZ
    Role: ORBITAL
    Keyword: BASIS
    atoms 1-2, 11-12  entry N          line   218 file /storage/home/hhive1/csargent30/data/miniconda3/envs/psi4/share/psi4/basis/aug-cc-pvdz.gbs 
    atoms 3-6, 13-16  entry H          line    40 file /storage/home/hhive1/csargent30/data/miniconda3/envs/psi4/share/psi4/basis/aug-cc-pvdz.gbs 
    atoms 7-10, 17-20 entry C          line   182 file /storage/home/hhive1/csargent30/data/miniconda3/envs/psi4/share/psi4/basis/aug-cc-pvdz.gbs 


         ---------------------------------------------------------
                                   SCF
               by Justin Turney, Rob Parrish, Andy Simmonett
                          and Daniel G. A. Smith
                              RHF Reference
                        2 Threads,   6675 MiB Core
         ---------------------------------------------------------

  ==> Geometry <==

    Molecular point group: c1
    Full point group: C1

    Geometry (in Bohr), charge = 0, multiplicity = 1:

       Center              X                  Y                   Z               Mass       
    ------------   -----------------  -----------------  -----------------  -----------------
         N           -1.330847580000     0.980326580000     0.426270370000    14.003074004430
         N            3.953773330000     0.980326580000     0.426270370000    14.003074004430
         H            3.567136740000     4.352185690000    -0.942309730000     1.007825032230
         H           -0.944210980000     4.352185690000    -0.942309730000     1.007825032230
         H           -0.944210980000    -2.391532530000     1.794850470000     1.007825032230
         H            3.567136740000    -2.391532530000     1.794850470000     1.007825032230
         C            2.622925760000     2.940979740000    -0.426270370000    12.000000000000
         C            0.000000000000     2.940979740000    -0.426270370000    12.000000000000
         C            0.000000000000    -0.980326580000     1.278811120000    12.000000000000
         C            2.622925760000    -0.980326580000     1.278811120000    12.000000000000
         N          -27.764525590000   -15.602587090000    -3.100997930000    14.003074004430
         N          -22.479904680000   -15.602587090000    -3.100997930000    14.003074004430
         H          -27.377888990000   -18.974446200000    -4.469578030000     1.007825032230
         H          -27.377888990000   -12.230727980000    -1.732417830000     1.007825032230
         H          -22.866541280000   -18.974446200000    -4.469578030000     1.007825032230
         H          -22.866541280000   -12.230727980000    -1.732417830000     1.007825032230
         C          -26.433678020000   -17.563240250000    -3.953538670000    12.000000000000
         C          -26.433678020000   -13.641933930000    -2.248457180000    12.000000000000
         C          -23.810752260000   -17.563240250000    -3.953538670000    12.000000000000
         C          -23.810752260000   -13.641933930000    -2.248457180000    12.000000000000

  Running in c1 symmetry.

  Rotational constants: A =      0.10110  B =      0.00084  C =      0.00084 [cm^-1]
  Rotational constants: A =   3030.86994  B =     25.19211  C =     25.05032 [MHz]
  Nuclear repulsion =  481.458136384449176

  Charge       = 0
  Multiplicity = 1
  Electrons    = 84
  Nalpha       = 42
  Nbeta        = 42

  ==> Algorithm <==

  SCF Algorithm Type is DF.
  DIIS enabled.
  MOM disabled.
  Fractional occupation disabled.
  Guess Type is SAD.
  Energy threshold   = 1.00e-10
  Density threshold  = 1.00e-10
  Integral threshold = 1.00e-12

  ==> Primary Basis <==

  Basis Set: AUG-CC-PVDZ
    Blend: AUG-CC-PVDZ
    Number of shells: 148
    Number of basis functions: 348
    Number of Cartesian functions: 372
    Spherical Harmonics?: true
    Max angular momentum: 2

   => Loading Basis Set <=

    Name: (AUG-CC-PVDZ AUX)
    Role: JKFIT
    Keyword: DF_BASIS_SCF
    atoms 1-2, 11-12  entry N          line   212 file /storage/home/hhive1/csargent30/data/miniconda3/envs/psi4/share/psi4/basis/aug-cc-pvdz-jkfit.gbs 
    atoms 3-6, 13-16  entry H          line    70 file /storage/home/hhive1/csargent30/data/miniconda3/envs/psi4/share/psi4/basis/aug-cc-pvdz-jkfit.gbs 
    atoms 7-10, 17-20 entry C          line   154 file /storage/home/hhive1/csargent30/data/miniconda3/envs/psi4/share/psi4/basis/aug-cc-pvdz-jkfit.gbs 

  ==> Integral Setup <==

  ==> DiskDFJK: Density-Fitted J/K Matrices <==

    J tasked:                  Yes
    K tasked:                  Yes
    wK tasked:                  No
    OpenMP threads:              2
    Integrals threads:           2
    Memory [MiB]:             5006
    Algorithm:                Core
    Integral Cache:           SAVE
    Schwarz Cutoff:          1E-12
    Fitting Condition:       1E-10

   => Auxiliary Basis Set <=

  Basis Set: (AUG-CC-PVDZ AUX)
    Blend: AUG-CC-PVDZ-JKFIT
    Number of shells: 432
    Number of basis functions: 1288
    Number of Cartesian functions: 1492
    Spherical Harmonics?: true
    Max angular momentum: 3

  Minimum eigenvalue in the overlap matrix is 9.4573718178E-06.
  Reciprocal condition number of the overlap matrix is 7.3764378147E-07.
    Using symmetric orthogonalization.

  ==> Pre-Iterations <==

  SCF Guess: Superposition of Atomic Densities via on-the-fly atomic UHF (no occupation information).

   -------------------------
    Irrep   Nso     Nmo    
   -------------------------
     A        348     348 
   -------------------------
    Total     348     348
   -------------------------

  ==> Iterations <==

                           Total Energy        Delta E     RMS |[F,P]|

   @DF-RHF iter SAD:  -524.65046252173590   -5.24650e+02   0.00000e+00 
   @DF-RHF iter   1:  -525.07882449148758   -4.28362e-01   1.58370e-03 DIIS
   @DF-RHF iter   2:  -525.25758477854004   -1.78760e-01   5.80753e-04 DIIS
   @DF-RHF iter   3:  -525.27725321781554   -1.96684e-02   1.81363e-04 DIIS
   @DF-RHF iter   4:  -525.27970262156430   -2.44940e-03   5.33976e-05 DIIS
   @DF-RHF iter   5:  -525.27988180316152   -1.79182e-04   1.06853e-05 DIIS
   @DF-RHF iter   6:  -525.27989490319862   -1.31000e-05   3.46839e-06 DIIS
   @DF-RHF iter   7:  -525.27989680768997   -1.90449e-06   9.05232e-07 DIIS
   @DF-RHF iter   8:  -525.27989695543533   -1.47745e-07   1.40683e-07 DIIS
   @DF-RHF iter   9:  -525.27989695940312   -3.96778e-09   2.95617e-08 DIIS
   @DF-RHF iter  10:  -525.27989695954398   -1.40858e-10   1.38089e-08 DIIS
   @DF-RHF iter  11:  -525.27989695956080   -1.68257e-11   2.93085e-09 DIIS
   @DF-RHF iter  12:  -525.27989695956182   -1.02318e-12   7.38026e-10 DIIS
   @DF-RHF iter  13:  -525.27989695956194   -1.13687e-13   3.79425e-10 DIIS
   @DF-RHF iter  14:  -525.27989695956239   -4.54747e-13   6.94084e-11 DIIS
  Energy and wave function converged.


  ==> Post-Iterations <==

    Orbital Energies [Eh]
    ---------------------

    Doubly Occupied:                                                      

       1A    -15.597991     2A    -15.597972     3A    -15.597956  
       4A    -15.597937     5A    -11.274156     6A    -11.274122  
       7A    -11.274109     8A    -11.274075     9A    -11.272896  
      10A    -11.272881    11A    -11.272863    12A    -11.272846  
      13A     -1.313264    14A     -1.313230    15A     -1.224094  
      16A     -1.224060    17A     -1.076719    18A     -1.076685  
      19A     -0.922580    20A     -0.922545    21A     -0.919198  
      22A     -0.919164    23A     -0.760554    24A     -0.760520  
      25A     -0.738317    26A     -0.738282    27A     -0.706131  
      28A     -0.706097    29A     -0.647603    30A     -0.647569  
      31A     -0.580627    32A     -0.580592    33A     -0.574287  
      34A     -0.574253    35A     -0.497033    36A     -0.496998  
      37A     -0.434207    38A     -0.434173    39A     -0.415775  
      40A     -0.415740    41A     -0.359839    42A     -0.359806  

    Virtual:                                                              

      43A      0.034535    44A      0.034674    45A      0.040747  
      46A      0.040964    47A      0.047979    48A      0.048950  
      49A      0.058140    50A      0.059339    51A      0.067200  
      52A      0.067230    53A      0.099504    54A      0.099537  
      55A      0.101032    56A      0.101069    57A      0.114289  
      58A      0.114315    59A      0.115034    60A      0.115063  
      61A      0.123489    62A      0.124225    63A      0.125406  
      64A      0.125440    65A      0.128675    66A      0.128874  
      67A      0.132982    68A      0.133009    69A      0.157982  
      70A      0.158476    71A      0.160580    72A      0.161213  
      73A      0.161298    74A      0.161856    75A      0.163363  
      76A      0.165110    77A      0.174674    78A      0.176153  
      79A      0.187005    80A      0.187036    81A      0.204001  
      82A      0.204030    83A      0.212590    84A      0.212671  
      85A      0.250599    86A      0.250628    87A      0.267829  
      88A      0.267868    89A      0.278020    90A      0.278300  
      91A      0.287892    92A      0.287924    93A      0.293284  
      94A      0.293324    95A      0.295458    96A      0.296268  
      97A      0.314873    98A      0.315007    99A      0.320542  
     100A      0.320574   101A      0.355285   102A      0.355791  
     103A      0.357996   104A      0.358029   105A      0.364743  
     106A      0.364778   107A      0.382380   108A      0.383013  
     109A      0.398898   110A      0.399108   111A      0.409914  
     112A      0.410084   113A      0.424964   114A      0.426207  
     115A      0.434016   116A      0.434049   117A      0.437166  
     118A      0.437514   119A      0.452033   120A      0.452379  
     121A      0.471499   122A      0.471672   123A      0.492226  
     124A      0.492261   125A      0.504950   126A      0.504986  
     127A      0.515001   128A      0.515032   129A      0.524600  
     130A      0.524699   131A      0.528689   132A      0.528861  
     133A      0.554662   134A      0.554697   135A      0.570620  
     136A      0.570656   137A      0.587618   138A      0.587654  
     139A      0.591541   140A      0.591671   141A      0.593879  
     142A      0.593919   143A      0.609003   144A      0.609062  
     145A      0.643585   146A      0.643636   147A      0.644363  
     148A      0.644503   149A      0.685216   150A      0.685257  
     151A      0.687841   152A      0.687875   153A      0.690007  
     154A      0.690053   155A      0.690334   156A      0.690578  
     157A      0.694916   158A      0.694953   159A      0.703789  
     160A      0.704098   161A      0.746592   162A      0.746744  
     163A      0.754905   164A      0.754939   165A      0.767045  
     166A      0.767081   167A      0.781487   168A      0.781520  
     169A      0.799827   170A      0.800018   171A      0.802757  
     172A      0.802874   173A      0.819097   174A      0.819131  
     175A      0.831154   176A      0.831187   177A      0.847403  
     178A      0.847839   179A      0.880629   180A      0.880664  
     181A      0.886487   182A      0.886539   183A      0.894767  
     184A      0.894799   185A      0.929354   186A      0.929397  
     187A      0.939476   188A      0.939663   189A      0.949378  
     190A      0.949441   191A      0.996701   192A      0.996808  
     193A      0.998985   194A      0.999022   195A      1.013094  
     196A      1.013129   197A      1.033223   198A      1.033742  
     199A      1.051279   200A      1.051313   201A      1.089459  
     202A      1.089498   203A      1.100526   204A      1.100561  
     205A      1.122228   206A      1.122377   207A      1.124125  
     208A      1.124168   209A      1.134429   210A      1.134502  
     211A      1.158753   212A      1.158938   213A      1.173647  
     214A      1.173682   215A      1.235491   216A      1.235542  
     217A      1.238880   218A      1.238934   219A      1.309751  
     220A      1.309799   221A      1.331231   222A      1.331266  
     223A      1.414365   224A      1.414403   225A      1.451602  
     226A      1.451648   227A      1.486213   228A      1.486255  
     229A      1.488150   230A      1.488196   231A      1.499201  
     232A      1.499427   233A      1.502902   234A      1.502995  
     235A      1.518277   236A      1.518441   237A      1.572769  
     238A      1.572803   239A      1.574256   240A      1.574332  
     241A      1.587887   242A      1.587991   243A      1.636059  
     244A      1.636108   245A      1.640589   246A      1.640624  
     247A      1.648076   248A      1.648583   249A      1.676637  
     250A      1.676672   251A      1.717073   252A      1.717106  
     253A      1.746681   254A      1.746715   255A      1.755189  
     256A      1.755222   257A      1.783812   258A      1.783915  
     259A      1.815812   260A      1.815846   261A      1.893408  
     262A      1.893442   263A      1.916220   264A      1.916256  
     265A      1.964913   266A      1.964947   267A      1.987756  
     268A      1.987791   269A      2.031286   270A      2.031321  
     271A      2.091632   272A      2.091668   273A      2.100970  
     274A      2.101297   275A      2.143030   276A      2.143079  
     277A      2.163439   278A      2.163474   279A      2.190574  
     280A      2.190608   281A      2.193159   282A      2.193662  
     283A      2.200455   284A      2.200512   285A      2.202495  
     286A      2.202530   287A      2.227698   288A      2.227756  
     289A      2.312839   290A      2.312883   291A      2.355289  
     292A      2.355375   293A      2.431038   294A      2.431073  
     295A      2.439059   296A      2.439094   297A      2.519454  
     298A      2.519507   299A      2.522479   300A      2.522513  
     301A      2.584846   302A      2.584881   303A      2.606347  
     304A      2.606382   305A      2.665307   306A      2.665342  
     307A      2.675490   308A      2.675524   309A      2.686468  
     310A      2.686520   311A      2.713995   312A      2.714177  
     313A      2.718625   314A      2.718767   315A      2.844096  
     316A      2.844130   317A      2.865842   318A      2.865877  
     319A      2.939278   320A      2.939314   321A      3.001938  
     322A      3.001975   323A      3.017952   324A      3.017990  
     325A      3.032264   326A      3.032306   327A      3.094221  
     328A      3.094256   329A      3.219896   330A      3.220975  
     331A      3.256063   332A      3.256099   333A      3.284945  
     334A      3.285015   335A      3.366221   336A      3.366258  
     337A      3.413452   338A      3.413487   339A      3.514988  
     340A      3.515054   341A      3.590737   342A      3.590775  
     343A      3.627843   344A      3.627894   345A      3.977220  
     346A      3.977464   347A      4.253569   348A      4.253603  

    Final Occupation by Irrep:
              A 
    DOCC [    42 ]

  @DF-RHF Final Energy:  -525.27989695956239

   => Energetics <=

    Nuclear Repulsion Energy =            481.4581363844491761
    One-Electron Energy =               -1663.6365746853382461
    Two-Electron Energy =                 656.8985413413265633
    Total Energy =                       -525.2798969595623930

Computation Completed


Properties will be evaluated at   0.000000,   0.000000,   0.000000 [a0]

Properties computed using the SCF density matrix

  Nuclear Dipole Moment: [e a0]
     X: -1000.0516      Y:  -614.1349      Z:  -112.3386

  Electronic Dipole Moment: [e a0]
     X:  1000.0519      Y:   614.1350      Z:   112.3386

  Dipole Moment: [e a0]
     X:     0.0003      Y:     0.0001      Z:     0.0000     Total:     0.0003

  Dipole Moment: [D]
     X:     0.0007      Y:     0.0002      Z:     0.0001     Total:     0.0007


*** tstop() called on atl1-1-01-013-11-r.pace.gatech.edu at Mon Nov 29 16:11:30 2021
Module time:
	user time   =      26.20 seconds =       0.44 minutes
	system time =       1.02 seconds =       0.02 minutes
	total time  =         14 seconds =       0.23 minutes
Total time:
	user time   =      26.20 seconds =       0.44 minutes
	system time =       1.02 seconds =       0.02 minutes
	total time  =         14 seconds =       0.23 minutes

  //>>>>>>>>>>>>>>>>>>>>>>>>>>>>>>>>>>>//
  //            Monomer A HF           //
  //<<<<<<<<<<<<<<<<<<<<<<<<<<<<<<<<<<<//


*** tstart() called on atl1-1-01-013-11-r.pace.gatech.edu
*** at Mon Nov 29 16:11:30 2021

   => Loading Basis Set <=

    Name: AUG-CC-PVDZ
    Role: ORBITAL
    Keyword: BASIS
    atoms 1-2, 11-12  entry N          line   218 file /storage/home/hhive1/csargent30/data/miniconda3/envs/psi4/share/psi4/basis/aug-cc-pvdz.gbs 
    atoms 3-6, 13-16  entry H          line    40 file /storage/home/hhive1/csargent30/data/miniconda3/envs/psi4/share/psi4/basis/aug-cc-pvdz.gbs 
    atoms 7-10, 17-20 entry C          line   182 file /storage/home/hhive1/csargent30/data/miniconda3/envs/psi4/share/psi4/basis/aug-cc-pvdz.gbs 


         ---------------------------------------------------------
                                   SCF
               by Justin Turney, Rob Parrish, Andy Simmonett
                          and Daniel G. A. Smith
                              RHF Reference
                        2 Threads,   6675 MiB Core
         ---------------------------------------------------------

  ==> Geometry <==

    Molecular point group: c1
    Full point group: C1

    Geometry (in Bohr), charge = 0, multiplicity = 1:

       Center              X                  Y                   Z               Mass       
    ------------   -----------------  -----------------  -----------------  -----------------
         N           -1.330847580000     0.980326580000     0.426270370000    14.003074004430
         N            3.953773330000     0.980326580000     0.426270370000    14.003074004430
         H            3.567136740000     4.352185690000    -0.942309730000     1.007825032230
         H           -0.944210980000     4.352185690000    -0.942309730000     1.007825032230
         H           -0.944210980000    -2.391532530000     1.794850470000     1.007825032230
         H            3.567136740000    -2.391532530000     1.794850470000     1.007825032230
         C            2.622925760000     2.940979740000    -0.426270370000    12.000000000000
         C            0.000000000000     2.940979740000    -0.426270370000    12.000000000000
         C            0.000000000000    -0.980326580000     1.278811120000    12.000000000000
         C            2.622925760000    -0.980326580000     1.278811120000    12.000000000000
      Gh(N)         -27.764525590000   -15.602587090000    -3.100997930000    14.003074004430
      Gh(N)         -22.479904680000   -15.602587090000    -3.100997930000    14.003074004430
      Gh(H)         -27.377888990000   -18.974446200000    -4.469578030000     1.007825032230
      Gh(H)         -27.377888990000   -12.230727980000    -1.732417830000     1.007825032230
      Gh(H)         -22.866541280000   -18.974446200000    -4.469578030000     1.007825032230
      Gh(H)         -22.866541280000   -12.230727980000    -1.732417830000     1.007825032230
      Gh(C)         -26.433678020000   -17.563240250000    -3.953538670000    12.000000000000
      Gh(C)         -26.433678020000   -13.641933930000    -2.248457180000    12.000000000000
      Gh(C)         -23.810752260000   -17.563240250000    -3.953538670000    12.000000000000
      Gh(C)         -23.810752260000   -13.641933930000    -2.248457180000    12.000000000000

  Running in c1 symmetry.

  Rotational constants: A =      0.10110  B =      0.00084  C =      0.00084 [cm^-1]
  Rotational constants: A =   3030.86994  B =     25.19211  C =     25.05032 [MHz]
  Nuclear repulsion =  212.551731110485349

  Charge       = 0
  Multiplicity = 1
  Electrons    = 42
  Nalpha       = 21
  Nbeta        = 21

  ==> Algorithm <==

  SCF Algorithm Type is DF.
  DIIS enabled.
  MOM disabled.
  Fractional occupation disabled.
  Guess Type is SAD.
  Energy threshold   = 1.00e-10
  Density threshold  = 1.00e-10
  Integral threshold = 1.00e-12

  ==> Primary Basis <==

  Basis Set: AUG-CC-PVDZ
    Blend: AUG-CC-PVDZ
    Number of shells: 148
    Number of basis functions: 348
    Number of Cartesian functions: 372
    Spherical Harmonics?: true
    Max angular momentum: 2

   => Loading Basis Set <=

    Name: (AUG-CC-PVDZ AUX)
    Role: JKFIT
    Keyword: DF_BASIS_SCF
    atoms 1-2, 11-12  entry N          line   212 file /storage/home/hhive1/csargent30/data/miniconda3/envs/psi4/share/psi4/basis/aug-cc-pvdz-jkfit.gbs 
    atoms 3-6, 13-16  entry H          line    70 file /storage/home/hhive1/csargent30/data/miniconda3/envs/psi4/share/psi4/basis/aug-cc-pvdz-jkfit.gbs 
    atoms 7-10, 17-20 entry C          line   154 file /storage/home/hhive1/csargent30/data/miniconda3/envs/psi4/share/psi4/basis/aug-cc-pvdz-jkfit.gbs 

  ==> Integral Setup <==

  ==> DiskDFJK: Density-Fitted J/K Matrices <==

    J tasked:                  Yes
    K tasked:                  Yes
    wK tasked:                  No
    OpenMP threads:              2
    Integrals threads:           2
    Memory [MiB]:             5006
    Algorithm:                Core
    Integral Cache:           LOAD
    Schwarz Cutoff:          1E-12
    Fitting Condition:       1E-10

   => Auxiliary Basis Set <=

  Basis Set: (AUG-CC-PVDZ AUX)
    Blend: AUG-CC-PVDZ-JKFIT
    Number of shells: 432
    Number of basis functions: 1288
    Number of Cartesian functions: 1492
    Spherical Harmonics?: true
    Max angular momentum: 3

  Minimum eigenvalue in the overlap matrix is 9.4573718178E-06.
  Reciprocal condition number of the overlap matrix is 7.3764378147E-07.
    Using symmetric orthogonalization.

  ==> Pre-Iterations <==

  SCF Guess: Superposition of Atomic Densities via on-the-fly atomic UHF (no occupation information).

   -------------------------
    Irrep   Nso     Nmo    
   -------------------------
     A        348     348 
   -------------------------
    Total     348     348
   -------------------------

  ==> Iterations <==

                           Total Energy        Delta E     RMS |[F,P]|

   @DF-RHF iter SAD:  -262.32523126026041   -2.62325e+02   0.00000e+00 
   @DF-RHF iter   1:  -262.53940798297452   -2.14177e-01   1.11985e-03 DIIS
   @DF-RHF iter   2:  -262.62878837705506   -8.93804e-02   4.10664e-04 DIIS
   @DF-RHF iter   3:  -262.63862292175304   -9.83454e-03   1.28248e-04 DIIS
   @DF-RHF iter   4:  -262.63984767499738   -1.22475e-03   3.77599e-05 DIIS
   @DF-RHF iter   5:  -262.63993727545937   -8.96005e-05   7.55558e-06 DIIS
   @DF-RHF iter   6:  -262.63994382571838   -6.55026e-06   2.45264e-06 DIIS
   @DF-RHF iter   7:  -262.63994477809217   -9.52374e-07   6.40130e-07 DIIS
   @DF-RHF iter   8:  -262.63994485197981   -7.38876e-08   9.91693e-08 DIIS
   @DF-RHF iter   9:  -262.63994485396483   -1.98503e-09   1.88228e-08 DIIS
   @DF-RHF iter  10:  -262.63994485403646   -7.16227e-11   3.19151e-09 DIIS
   @DF-RHF iter  11:  -262.63994485403873   -2.27374e-12   5.22318e-10 DIIS
   @DF-RHF iter  12:  -262.63994485403902   -2.84217e-13   9.54420e-11 DIIS
  Energy and wave function converged.


  ==> Post-Iterations <==

    Orbital Energies [Eh]
    ---------------------

    Doubly Occupied:                                                      

       1A    -15.598072     2A    -15.598053     3A    -11.274239  
       4A    -11.274194     5A    -11.272975     6A    -11.272969  
       7A     -1.313347     8A     -1.224176     9A     -1.076803  
      10A     -0.922662    11A     -0.919282    12A     -0.760637  
      13A     -0.738402    14A     -0.706214    15A     -0.647687  
      16A     -0.580711    17A     -0.574369    18A     -0.497113  
      19A     -0.434288    20A     -0.415855    21A     -0.359924  

    Virtual:                                                              

      22A      0.022480    23A      0.034489    24A      0.039560  
      25A      0.040676    26A      0.041258    27A      0.048371  
      28A      0.058158    29A      0.059379    30A      0.067113  
      31A      0.079721    32A      0.085109    33A      0.099419  
      34A      0.100947    35A      0.104041    36A      0.108547  
      37A      0.108890    38A      0.114201    39A      0.114952  
      40A      0.122544    41A      0.123733    42A      0.125319  
      43A      0.125684    44A      0.128667    45A      0.130985  
      46A      0.132889    47A      0.134205    48A      0.152046  
      49A      0.153032    50A      0.158233    51A      0.159386  
      52A      0.161100    53A      0.161369    54A      0.163979  
      55A      0.175076    56A      0.176979    57A      0.186919  
      58A      0.197895    59A      0.203903    60A      0.203966  
      61A      0.206701    62A      0.212539    63A      0.222440  
      64A      0.233677    65A      0.239477    66A      0.250517  
      67A      0.255257    68A      0.267752    69A      0.270832  
      70A      0.278074    71A      0.287813    72A      0.293207  
      73A      0.295767    74A      0.302379    75A      0.314832  
      76A      0.320457    77A      0.320695    78A      0.328221  
      79A      0.331347    80A      0.344162    81A      0.355441  
      82A      0.357908    83A      0.364661    84A      0.380493  
      85A      0.382664    86A      0.385679    87A      0.398897  
      88A      0.401315    89A      0.409899    90A      0.419312  
      91A      0.424995    92A      0.425494    93A      0.433926  
      94A      0.437220    95A      0.441976    96A      0.452098  
      97A      0.460699    98A      0.461154    99A      0.471484  
     100A      0.476131   101A      0.478870   102A      0.492140  
     103A      0.504862   104A      0.507876   105A      0.514914  
     106A      0.523808   107A      0.524558   108A      0.528674  
     109A      0.535780   110A      0.554577   111A      0.557888  
     112A      0.561561   113A      0.564538   114A      0.570535  
     115A      0.581983   116A      0.587536   117A      0.591515  
     118A      0.593800   119A      0.596056   120A      0.608931  
     121A      0.615181   122A      0.620200   123A      0.636404  
     124A      0.643519   125A      0.644324   126A      0.649401  
     127A      0.651532   128A      0.679459   129A      0.685126  
     130A      0.685375   131A      0.687759   132A      0.689933  
     133A      0.690354   134A      0.694829   135A      0.703839  
     136A      0.719943   137A      0.728436   138A      0.746542  
     139A      0.746853   140A      0.754817   141A      0.766966  
     142A      0.775723   143A      0.781406   144A      0.793676  
     145A      0.799818   146A      0.802711   147A      0.811143  
     148A      0.812028   149A      0.819016   150A      0.824792  
     151A      0.831071   152A      0.847515   153A      0.848105  
     154A      0.849233   155A      0.868650   156A      0.880544  
     157A      0.886411   158A      0.888190   159A      0.894682  
     160A      0.906146   161A      0.929145   162A      0.929287  
     163A      0.939471   164A      0.947733   165A      0.949308  
     166A      0.970823   167A      0.976972   168A      0.986675  
     169A      0.996655   170A      0.998908   171A      1.013015  
     172A      1.032461   173A      1.033382   174A      1.046971  
     175A      1.051194   176A      1.076310   177A      1.089381  
     178A      1.090315   179A      1.100445   180A      1.122198  
     181A      1.124044   182A      1.130722   183A      1.134368  
     184A      1.140306   185A      1.158745   186A      1.168631  
     187A      1.170718   188A      1.173565   189A      1.192260  
     190A      1.193279   191A      1.200509   192A      1.222362  
     193A      1.235417   194A      1.238805   195A      1.251065  
     196A      1.307596   197A      1.309674   198A      1.318297  
     199A      1.326455   200A      1.329648   201A      1.331149  
     202A      1.346845   203A      1.389264   204A      1.414282  
     205A      1.448427   206A      1.451527   207A      1.455498  
     208A      1.479174   209A      1.486137   210A      1.487245  
     211A      1.488076   212A      1.499216   213A      1.502847  
     214A      1.518255   215A      1.572686   216A      1.574194  
     217A      1.587838   218A      1.635982   219A      1.640505  
     220A      1.648229   221A      1.659282   222A      1.676553  
     223A      1.698106   224A      1.716991   225A      1.746597  
     226A      1.755104   227A      1.783764   228A      1.815727  
     229A      1.893323   230A      1.916137   231A      1.964829  
     232A      1.987675   233A      2.031202   234A      2.070273  
     235A      2.091549   236A      2.101033   237A      2.102808  
     238A      2.119489   239A      2.142954   240A      2.156722  
     241A      2.159236   242A      2.163356   243A      2.190489  
     244A      2.193308   245A      2.194905   246A      2.200380  
     247A      2.202411   248A      2.227627   249A      2.234819  
     250A      2.241249   251A      2.249707   252A      2.310062  
     253A      2.312761   254A      2.319591   255A      2.355230  
     256A      2.384855   257A      2.419257   258A      2.430957  
     259A      2.435458   260A      2.438212   261A      2.438977  
     262A      2.472721   263A      2.486773   264A      2.498368  
     265A      2.519380   266A      2.522395   267A      2.525114  
     268A      2.546041   269A      2.568376   270A      2.584767  
     271A      2.592422   272A      2.606266   273A      2.626020  
     274A      2.665224   275A      2.675409   276A      2.686396  
     277A      2.713986   278A      2.716945   279A      2.718596  
     280A      2.726694   281A      2.767977   282A      2.844014  
     283A      2.865761   284A      2.904084   285A      2.939196  
     286A      2.947271   287A      2.955794   288A      2.973384  
     289A      3.001856   290A      3.017872   291A      3.032187  
     292A      3.058375   293A      3.065279   294A      3.094137  
     295A      3.113925   296A      3.220335   297A      3.245774  
     298A      3.255980   299A      3.284881   300A      3.289722  
     301A      3.322007   302A      3.337781   303A      3.340533  
     304A      3.348703   305A      3.351424   306A      3.366140  
     307A      3.412674   308A      3.413367   309A      3.470835  
     310A      3.502031   311A      3.514921   312A      3.521433  
     313A      3.590655   314A      3.604509   315A      3.605717  
     316A      3.627769   317A      3.700556   318A      3.819005  
     319A      3.830760   320A      3.941041   321A      3.969171  
     322A      3.977240   323A      4.011479   324A      4.194832  
     325A      4.242342   326A      4.253485   327A      4.442064  
     328A      4.546902   329A      4.579348   330A      4.867710  
     331A      4.976218   332A      5.057925   333A      5.261786  
     334A      5.316615   335A      5.630276   336A      5.691397  
     337A      5.827220   338A      5.952710   339A      6.283905  
     340A      6.306966   341A      6.453844   342A      6.631277  
     343A     18.125793   344A     18.208056   345A     19.017662  
     346A     19.343076   347A     25.287132   348A     25.374852  

    Final Occupation by Irrep:
              A 
    DOCC [    21 ]

  @DF-RHF Final Energy:  -262.63994485403902

   => Energetics <=

    Nuclear Repulsion Energy =            212.5517311104853491
    One-Electron Energy =                -775.4594096749453911
    Two-Electron Energy =                 300.2677337104210551
    Total Energy =                       -262.6399448540390154

Computation Completed


Properties will be evaluated at   0.000000,   0.000000,   0.000000 [a0]

Properties computed using the SCF density matrix

  Nuclear Dipole Moment: [e a0]
     X:    55.0814      Y:    41.1737      Z:    17.9034

  Electronic Dipole Moment: [e a0]
     X:   -55.0814      Y:   -41.1737      Z:   -17.9034

  Dipole Moment: [e a0]
     X:    -0.0000      Y:    -0.0000      Z:    -0.0000     Total:     0.0000

  Dipole Moment: [D]
     X:    -0.0000      Y:    -0.0000      Z:    -0.0000     Total:     0.0000


*** tstop() called on atl1-1-01-013-11-r.pace.gatech.edu at Mon Nov 29 16:11:39 2021
Module time:
	user time   =      16.34 seconds =       0.27 minutes
	system time =       0.47 seconds =       0.01 minutes
	total time  =          9 seconds =       0.15 minutes
Total time:
	user time   =      42.55 seconds =       0.71 minutes
	system time =       1.49 seconds =       0.02 minutes
	total time  =         23 seconds =       0.38 minutes

  //>>>>>>>>>>>>>>>>>>>>>>>>>>>>>>>>>>>//
  //            Monomer B HF           //
  //<<<<<<<<<<<<<<<<<<<<<<<<<<<<<<<<<<<//


*** tstart() called on atl1-1-01-013-11-r.pace.gatech.edu
*** at Mon Nov 29 16:11:39 2021

   => Loading Basis Set <=

    Name: AUG-CC-PVDZ
    Role: ORBITAL
    Keyword: BASIS
    atoms 1-2, 11-12  entry N          line   218 file /storage/home/hhive1/csargent30/data/miniconda3/envs/psi4/share/psi4/basis/aug-cc-pvdz.gbs 
    atoms 3-6, 13-16  entry H          line    40 file /storage/home/hhive1/csargent30/data/miniconda3/envs/psi4/share/psi4/basis/aug-cc-pvdz.gbs 
    atoms 7-10, 17-20 entry C          line   182 file /storage/home/hhive1/csargent30/data/miniconda3/envs/psi4/share/psi4/basis/aug-cc-pvdz.gbs 


         ---------------------------------------------------------
                                   SCF
               by Justin Turney, Rob Parrish, Andy Simmonett
                          and Daniel G. A. Smith
                              RHF Reference
                        2 Threads,   6675 MiB Core
         ---------------------------------------------------------

  ==> Geometry <==

    Molecular point group: c1
    Full point group: C1

    Geometry (in Bohr), charge = 0, multiplicity = 1:

       Center              X                  Y                   Z               Mass       
    ------------   -----------------  -----------------  -----------------  -----------------
      Gh(N)          -1.330847580000     0.980326580000     0.426270370000    14.003074004430
      Gh(N)           3.953773330000     0.980326580000     0.426270370000    14.003074004430
      Gh(H)           3.567136740000     4.352185690000    -0.942309730000     1.007825032230
      Gh(H)          -0.944210980000     4.352185690000    -0.942309730000     1.007825032230
      Gh(H)          -0.944210980000    -2.391532530000     1.794850470000     1.007825032230
      Gh(H)           3.567136740000    -2.391532530000     1.794850470000     1.007825032230
      Gh(C)           2.622925760000     2.940979740000    -0.426270370000    12.000000000000
      Gh(C)           0.000000000000     2.940979740000    -0.426270370000    12.000000000000
      Gh(C)           0.000000000000    -0.980326580000     1.278811120000    12.000000000000
      Gh(C)           2.622925760000    -0.980326580000     1.278811120000    12.000000000000
         N          -27.764525590000   -15.602587090000    -3.100997930000    14.003074004430
         N          -22.479904680000   -15.602587090000    -3.100997930000    14.003074004430
         H          -27.377888990000   -18.974446200000    -4.469578030000     1.007825032230
         H          -27.377888990000   -12.230727980000    -1.732417830000     1.007825032230
         H          -22.866541280000   -18.974446200000    -4.469578030000     1.007825032230
         H          -22.866541280000   -12.230727980000    -1.732417830000     1.007825032230
         C          -26.433678020000   -17.563240250000    -3.953538670000    12.000000000000
         C          -26.433678020000   -13.641933930000    -2.248457180000    12.000000000000
         C          -23.810752260000   -17.563240250000    -3.953538670000    12.000000000000
         C          -23.810752260000   -13.641933930000    -2.248457180000    12.000000000000

  Running in c1 symmetry.

  Rotational constants: A =      0.10110  B =      0.00084  C =      0.00084 [cm^-1]
  Rotational constants: A =   3030.86994  B =     25.19211  C =     25.05032 [MHz]
  Nuclear repulsion =  212.551731143112931

  Charge       = 0
  Multiplicity = 1
  Electrons    = 42
  Nalpha       = 21
  Nbeta        = 21

  ==> Algorithm <==

  SCF Algorithm Type is DF.
  DIIS enabled.
  MOM disabled.
  Fractional occupation disabled.
  Guess Type is SAD.
  Energy threshold   = 1.00e-10
  Density threshold  = 1.00e-10
  Integral threshold = 1.00e-12

  ==> Primary Basis <==

  Basis Set: AUG-CC-PVDZ
    Blend: AUG-CC-PVDZ
    Number of shells: 148
    Number of basis functions: 348
    Number of Cartesian functions: 372
    Spherical Harmonics?: true
    Max angular momentum: 2

   => Loading Basis Set <=

    Name: (AUG-CC-PVDZ AUX)
    Role: JKFIT
    Keyword: DF_BASIS_SCF
    atoms 1-2, 11-12  entry N          line   212 file /storage/home/hhive1/csargent30/data/miniconda3/envs/psi4/share/psi4/basis/aug-cc-pvdz-jkfit.gbs 
    atoms 3-6, 13-16  entry H          line    70 file /storage/home/hhive1/csargent30/data/miniconda3/envs/psi4/share/psi4/basis/aug-cc-pvdz-jkfit.gbs 
    atoms 7-10, 17-20 entry C          line   154 file /storage/home/hhive1/csargent30/data/miniconda3/envs/psi4/share/psi4/basis/aug-cc-pvdz-jkfit.gbs 

  ==> Integral Setup <==

  ==> DiskDFJK: Density-Fitted J/K Matrices <==

    J tasked:                  Yes
    K tasked:                  Yes
    wK tasked:                  No
    OpenMP threads:              2
    Integrals threads:           2
    Memory [MiB]:             5006
    Algorithm:                Core
    Integral Cache:           LOAD
    Schwarz Cutoff:          1E-12
    Fitting Condition:       1E-10

   => Auxiliary Basis Set <=

  Basis Set: (AUG-CC-PVDZ AUX)
    Blend: AUG-CC-PVDZ-JKFIT
    Number of shells: 432
    Number of basis functions: 1288
    Number of Cartesian functions: 1492
    Spherical Harmonics?: true
    Max angular momentum: 3

  Minimum eigenvalue in the overlap matrix is 9.4573718178E-06.
  Reciprocal condition number of the overlap matrix is 7.3764378147E-07.
    Using symmetric orthogonalization.

  ==> Pre-Iterations <==

  SCF Guess: Superposition of Atomic Densities via on-the-fly atomic UHF (no occupation information).

   -------------------------
    Irrep   Nso     Nmo    
   -------------------------
     A        348     348 
   -------------------------
    Total     348     348
   -------------------------

  ==> Iterations <==

                           Total Energy        Delta E     RMS |[F,P]|

   @DF-RHF iter SAD:  -262.32523126042810   -2.62325e+02   0.00000e+00 
   @DF-RHF iter   1:  -262.53940797915129   -2.14177e-01   1.11985e-03 DIIS
   @DF-RHF iter   2:  -262.62878837313957   -8.93804e-02   4.10664e-04 DIIS
   @DF-RHF iter   3:  -262.63862291778543   -9.83454e-03   1.28248e-04 DIIS
   @DF-RHF iter   4:  -262.63984767102306   -1.22475e-03   3.77599e-05 DIIS
   @DF-RHF iter   5:  -262.63993727148448   -8.96005e-05   7.55558e-06 DIIS
   @DF-RHF iter   6:  -262.63994382174360   -6.55026e-06   2.45264e-06 DIIS
   @DF-RHF iter   7:  -262.63994477411677   -9.52373e-07   6.40130e-07 DIIS
   @DF-RHF iter   8:  -262.63994484800440   -7.38876e-08   9.91693e-08 DIIS
   @DF-RHF iter   9:  -262.63994484999074   -1.98634e-09   1.88228e-08 DIIS
   @DF-RHF iter  10:  -262.63994485006111   -7.03722e-11   3.19151e-09 DIIS
   @DF-RHF iter  11:  -262.63994485006350   -2.38742e-12   5.22318e-10 DIIS
   @DF-RHF iter  12:  -262.63994485006367   -1.70530e-13   9.54420e-11 DIIS
  Energy and wave function converged.


  ==> Post-Iterations <==

    Orbital Energies [Eh]
    ---------------------

    Doubly Occupied:                                                      

       1A    -15.598072     2A    -15.598053     3A    -11.274239  
       4A    -11.274194     5A    -11.272975     6A    -11.272969  
       7A     -1.313347     8A     -1.224176     9A     -1.076803  
      10A     -0.922662    11A     -0.919282    12A     -0.760637  
      13A     -0.738402    14A     -0.706214    15A     -0.647687  
      16A     -0.580711    17A     -0.574369    18A     -0.497113  
      19A     -0.434288    20A     -0.415855    21A     -0.359924  

    Virtual:                                                              

      22A      0.022446    23A      0.034489    24A      0.039522  
      25A      0.040659    26A      0.041227    27A      0.048376  
      28A      0.058137    29A      0.059346    30A      0.067113  
      31A      0.079698    32A      0.085072    33A      0.099419  
      34A      0.100947    35A      0.103994    36A      0.108521  
      37A      0.108850    38A      0.114201    39A      0.114951  
      40A      0.122518    41A      0.123731    42A      0.125319  
      43A      0.125650    44A      0.128666    45A      0.130960  
      46A      0.132889    47A      0.134161    48A      0.152017  
      49A      0.152978    50A      0.158234    51A      0.159355  
      52A      0.161098    53A      0.161378    54A      0.163968  
      55A      0.175060    56A      0.176956    57A      0.186918  
      58A      0.197853    59A      0.203899    60A      0.203941  
      61A      0.206671    62A      0.212539    63A      0.222406  
      64A      0.233637    65A      0.239436    66A      0.250517  
      67A      0.255227    68A      0.267752    69A      0.270793  
      70A      0.278074    71A      0.287812    72A      0.293207  
      73A      0.295771    74A      0.302344    75A      0.314832  
      76A      0.320457    77A      0.320655    78A      0.328180  
      79A      0.331316    80A      0.344120    81A      0.355444  
      82A      0.357908    83A      0.364661    84A      0.380457  
      85A      0.382662    86A      0.385648    87A      0.398897  
      88A      0.401277    89A      0.409899    90A      0.419273  
      91A      0.424964    92A      0.425496    93A      0.433925  
      94A      0.437221    95A      0.441943    96A      0.452098  
      97A      0.460666    98A      0.461120    99A      0.471484  
     100A      0.476098   101A      0.478832   102A      0.492140  
     103A      0.504862   104A      0.507839   105A      0.514914  
     106A      0.523765   107A      0.524561   108A      0.528673  
     109A      0.535745   110A      0.554577   111A      0.557851  
     112A      0.561528   113A      0.564503   114A      0.570535  
     115A      0.581942   116A      0.587536   117A      0.591512  
     118A      0.593800   119A      0.596015   120A      0.608931  
     121A      0.615148   122A      0.620169   123A      0.636372  
     124A      0.643518   125A      0.644325   126A      0.649367  
     127A      0.651500   128A      0.679422   129A      0.685129  
     130A      0.685330   131A      0.687759   132A      0.689933  
     133A      0.690358   134A      0.694829   135A      0.703839  
     136A      0.719908   137A      0.728406   138A      0.746537  
     139A      0.746827   140A      0.754817   141A      0.766965  
     142A      0.775691   143A      0.781406   144A      0.793640  
     145A      0.799817   146A      0.802711   147A      0.811112  
     148A      0.811992   149A      0.819016   150A      0.824756  
     151A      0.831071   152A      0.847516   153A      0.848071  
     154A      0.849197   155A      0.868616   156A      0.880544  
     157A      0.886411   158A      0.888157   159A      0.894682  
     160A      0.906113   161A      0.929115   162A      0.929279  
     163A      0.939471   164A      0.947700   165A      0.949308  
     166A      0.970791   167A      0.976939   168A      0.986639  
     169A      0.996655   170A      0.998908   171A      1.013015  
     172A      1.032425   173A      1.033383   174A      1.046938  
     175A      1.051194   176A      1.076276   177A      1.089381  
     178A      1.090281   179A      1.100445   180A      1.122198  
     181A      1.124044   182A      1.130686   183A      1.134367  
     184A      1.140272   185A      1.158745   186A      1.168599  
     187A      1.170685   188A      1.173565   189A      1.192226  
     190A      1.193245   191A      1.200478   192A      1.222327  
     193A      1.235417   194A      1.238805   195A      1.251033  
     196A      1.307563   197A      1.309675   198A      1.318265  
     199A      1.326420   200A      1.329615   201A      1.331148  
     202A      1.346812   203A      1.389230   204A      1.414282  
     205A      1.448392   206A      1.451527   207A      1.455464  
     208A      1.479140   209A      1.486137   210A      1.487211  
     211A      1.488075   212A      1.499216   213A      1.502848  
     214A      1.518255   215A      1.572686   216A      1.574193  
     217A      1.587838   218A      1.635982   219A      1.640505  
     220A      1.648228   221A      1.659248   222A      1.676553  
     223A      1.698073   224A      1.716991   225A      1.746597  
     226A      1.755104   227A      1.783764   228A      1.815727  
     229A      1.893323   230A      1.916137   231A      1.964829  
     232A      1.987675   233A      2.031202   234A      2.070240  
     235A      2.091549   236A      2.101033   237A      2.102776  
     238A      2.119457   239A      2.142954   240A      2.156689  
     241A      2.159202   242A      2.163356   243A      2.190489  
     244A      2.193309   245A      2.194872   246A      2.200381  
     247A      2.202411   248A      2.227626   249A      2.234787  
     250A      2.241216   251A      2.249673   252A      2.310028  
     253A      2.312761   254A      2.319560   255A      2.355230  
     256A      2.384823   257A      2.419222   258A      2.430957  
     259A      2.435423   260A      2.438178   261A      2.438977  
     262A      2.472688   263A      2.486739   264A      2.498334  
     265A      2.519380   266A      2.522395   267A      2.525081  
     268A      2.546008   269A      2.568342   270A      2.584766  
     271A      2.592388   272A      2.606266   273A      2.625986  
     274A      2.665224   275A      2.675409   276A      2.686396  
     277A      2.713987   278A      2.716912   279A      2.718595  
     280A      2.726661   281A      2.767944   282A      2.844014  
     283A      2.865761   284A      2.904050   285A      2.939196  
     286A      2.947236   287A      2.955761   288A      2.973350  
     289A      3.001856   290A      3.017872   291A      3.032187  
     292A      3.058342   293A      3.065245   294A      3.094137  
     295A      3.113891   296A      3.220338   297A      3.245741  
     298A      3.255980   299A      3.284881   300A      3.289689  
     301A      3.321974   302A      3.337748   303A      3.340499  
     304A      3.348670   305A      3.351390   306A      3.366140  
     307A      3.412641   308A      3.413367   309A      3.470800  
     310A      3.501998   311A      3.514921   312A      3.521399  
     313A      3.590655   314A      3.604475   315A      3.605685  
     316A      3.627769   317A      3.700522   318A      3.818971  
     319A      3.830727   320A      3.941007   321A      3.969137  
     322A      3.977240   323A      4.011446   324A      4.194799  
     325A      4.242306   326A      4.253485   327A      4.442030  
     328A      4.546869   329A      4.579315   330A      4.867678  
     331A      4.976185   332A      5.057893   333A      5.261753  
     334A      5.316582   335A      5.630242   336A      5.691364  
     337A      5.827187   338A      5.952677   339A      6.283871  
     340A      6.306933   341A      6.453810   342A      6.631243  
     343A     18.125761   344A     18.208023   345A     19.017629  
     346A     19.343043   347A     25.287099   348A     25.374819  

    Final Occupation by Irrep:
              A 
    DOCC [    21 ]

  @DF-RHF Final Energy:  -262.63994485006367

   => Energetics <=

    Nuclear Repulsion Energy =            212.5517311431129315
    One-Electron Energy =                -775.4594097218570141
    Two-Electron Energy =                 300.2677337286803549
    Total Energy =                       -262.6399448500636709

Computation Completed


Properties will be evaluated at   0.000000,   0.000000,   0.000000 [a0]

Properties computed using the SCF density matrix

  Nuclear Dipole Moment: [e a0]
     X: -1055.1330      Y:  -655.3087      Z:  -130.2419

  Electronic Dipole Moment: [e a0]
     X:  1055.1330      Y:   655.3087      Z:   130.2419

  Dipole Moment: [e a0]
     X:     0.0000      Y:     0.0000      Z:    -0.0000     Total:     0.0000

  Dipole Moment: [D]
     X:     0.0000      Y:     0.0000      Z:    -0.0000     Total:     0.0000


*** tstop() called on atl1-1-01-013-11-r.pace.gatech.edu at Mon Nov 29 16:11:48 2021
Module time:
	user time   =      16.11 seconds =       0.27 minutes
	system time =       0.49 seconds =       0.01 minutes
	total time  =          9 seconds =       0.15 minutes
Total time:
	user time   =      58.67 seconds =       0.98 minutes
	system time =       1.98 seconds =       0.03 minutes
	total time  =         32 seconds =       0.53 minutes
  Constructing Basis Sets for SAPT...

   => Loading Basis Set <=

    Name: (AUG-CC-PVDZ AUX)
    Role: RIFIT
    Keyword: DF_BASIS_SAPT
    atoms 1-2, 11-12  entry N          line   158 file /storage/home/hhive1/csargent30/data/miniconda3/envs/psi4/share/psi4/basis/aug-cc-pvdz-ri.gbs 
    atoms 3-6, 13-16  entry H          line    30 file /storage/home/hhive1/csargent30/data/miniconda3/envs/psi4/share/psi4/basis/aug-cc-pvdz-ri.gbs 
    atoms 7-10, 17-20 entry C          line   112 file /storage/home/hhive1/csargent30/data/miniconda3/envs/psi4/share/psi4/basis/aug-cc-pvdz-ri.gbs 


  //>>>>>>>>>>>>>>>>>>>>>>>>>>>>>>>>>>>//
  //               SAPT0               //
  //<<<<<<<<<<<<<<<<<<<<<<<<<<<<<<<<<<<//


*** tstart() called on atl1-1-01-013-11-r.pace.gatech.edu
*** at Mon Nov 29 16:11:48 2021

        SAPT0  
    Ed Hohenstein
     6 June 2009

      Orbital Information
  --------------------------
    NSO        =       348
    NMO        =       348
    NRI        =      1048
    NOCC A     =        21
    NOCC B     =        21
    FOCC A     =         6
    FOCC B     =         6
    NVIR A     =       327
    NVIR B     =       327

    Elst10,r            =    -0.000007256382 [Eh]
    Exch10              =     0.000000000014 [Eh]
    Exch10 (S^2)        =     0.000000000014 [Eh]

    Iter     Energy [mEh]          dE [mEh]         Residual      Time [s]
       1      -0.00000957       0.000009574       0.032864257             0
       2      -0.00000864      -0.000000930       0.007457346             0
       3      -0.00000939       0.000000745       0.003533958             1
       4      -0.00000958       0.000000192       0.001163818             1
       5      -0.00000952      -0.000000057       0.000673225             1
       6      -0.00000951      -0.000000009       0.000236461             2
       7      -0.00000952       0.000000005       0.000073965             2
       8      -0.00000952       0.000000001       0.000024088             2
       9      -0.00000952      -0.000000000       0.000008284             3
      10      -0.00000952      -0.000000000       0.000002902             3
      11      -0.00000952       0.000000000       0.000001687             4
      12      -0.00000952       0.000000000       0.000000571             4

    CHF Iterations converged


    Iter     Energy [mEh]          dE [mEh]         Residual      Time [s]
       1      -0.00001055       0.000010553       0.035252038             0
       2      -0.00000955      -0.000001000       0.007891501             1
       3      -0.00001051       0.000000953       0.003324918             1
       4      -0.00001065       0.000000149       0.001425780             1
       5      -0.00001059      -0.000000067       0.000669236             2
       6      -0.00001058      -0.000000008       0.000246730             2
       7      -0.00001058       0.000000004       0.000079063             2
       8      -0.00001059       0.000000002       0.000026530             3
       9      -0.00001058      -0.000000000       0.000009186             3
      10      -0.00001058      -0.000000000       0.000003292             3
      11      -0.00001058       0.000000000       0.000001892             4
      12      -0.00001058       0.000000000       0.000000632             4

    CHF Iterations converged

    Ind20,r (A<-B)      =    -0.000000009520 [Eh]
    Ind20,r (B<-A)      =    -0.000000010585 [Eh]
    Ind20,r             =    -0.000000020105 [Eh]
    Exch-Ind20,r (A<-B) =     0.000000000010 [Eh]
    Exch-Ind20,r (B<-A) =     0.000000000009 [Eh]
    Exch-Ind20,r        =     0.000000000018 [Eh]
    Disp20              =    -0.000002082356 [Eh]
    Disp20 (SS)         =    -0.000001041178 [Eh]
    Disp20 (OS)         =    -0.000001041178 [Eh]
    Exch-Disp20         =     0.000000000001 [Eh]
    Exch-Disp20 (SS)    =     0.000000000000 [Eh]
    Exch-Disp20 (OS)    =     0.000000000000 [Eh]

    SAPT Results 
  --------------------------------------------------------------------------------------------------------
    Electrostatics                 -0.00725638 [mEh]      -0.00455345 [kcal/mol]      -0.01905163 [kJ/mol]
      Elst10,r                     -0.00725638 [mEh]      -0.00455345 [kcal/mol]      -0.01905163 [kJ/mol]

    Exchange                        0.00000001 [mEh]       0.00000001 [kcal/mol]       0.00000004 [kJ/mol]
      Exch10                        0.00000001 [mEh]       0.00000001 [kcal/mol]       0.00000004 [kJ/mol]
      Exch10(S^2)                   0.00000001 [mEh]       0.00000001 [kcal/mol]       0.00000004 [kJ/mol]

    Induction                       0.00000091 [mEh]       0.00000057 [kcal/mol]       0.00000239 [kJ/mol]
      Ind20,r                      -0.00002010 [mEh]      -0.00001262 [kcal/mol]      -0.00005278 [kJ/mol]
      Exch-Ind20,r                  0.00000002 [mEh]       0.00000001 [kcal/mol]       0.00000005 [kJ/mol]
      delta HF,r (2)                0.00002100 [mEh]       0.00001317 [kcal/mol]       0.00005512 [kJ/mol]

    Dispersion                     -0.00208236 [mEh]      -0.00130670 [kcal/mol]      -0.00546722 [kJ/mol]
      Disp20                       -0.00208236 [mEh]      -0.00130670 [kcal/mol]      -0.00546723 [kJ/mol]
      Exch-Disp20                   0.00000000 [mEh]       0.00000000 [kcal/mol]       0.00000000 [kJ/mol]
      Disp20 (SS)                  -0.00104118 [mEh]      -0.00065335 [kcal/mol]      -0.00273361 [kJ/mol]
      Disp20 (OS)                  -0.00104118 [mEh]      -0.00065335 [kcal/mol]      -0.00273361 [kJ/mol]
      Exch-Disp20 (SS)              0.00000000 [mEh]       0.00000000 [kcal/mol]       0.00000000 [kJ/mol]
      Exch-Disp20 (OS)              0.00000000 [mEh]       0.00000000 [kcal/mol]       0.00000000 [kJ/mol]

  Total HF                         -0.00725546 [mEh]      -0.00455287 [kcal/mol]      -0.01904921 [kJ/mol]
  Total SAPT0                      -0.00933782 [mEh]      -0.00585957 [kcal/mol]      -0.02451643 [kJ/mol]

  Special recipe for scaled SAPT0 (see Manual):
    Electrostatics sSAPT0          -0.00725638 [mEh]      -0.00455345 [kcal/mol]      -0.01905163 [kJ/mol]
    Exchange sSAPT0                 0.00000001 [mEh]       0.00000001 [kcal/mol]       0.00000004 [kJ/mol]
    Induction sSAPT0                0.00000091 [mEh]       0.00000057 [kcal/mol]       0.00000239 [kJ/mol]
    Dispersion sSAPT0              -0.00208236 [mEh]      -0.00130670 [kcal/mol]      -0.00546722 [kJ/mol]
  Total sSAPT0                     -0.00933782 [mEh]      -0.00585957 [kcal/mol]      -0.02451643 [kJ/mol]
  --------------------------------------------------------------------------------------------------------

*** tstop() called on atl1-1-01-013-11-r.pace.gatech.edu at Mon Nov 29 16:12:14 2021
Module time:
	user time   =      38.43 seconds =       0.64 minutes
	system time =       9.38 seconds =       0.16 minutes
	total time  =         26 seconds =       0.43 minutes
Total time:
	user time   =      97.34 seconds =       1.62 minutes
	system time =      11.37 seconds =       0.19 minutes
	total time  =         58 seconds =       0.97 minutes


Warning! sapt0 does not have an associated derived wavefunction.The returned wavefunction is the dimer SCF wavefunction.


    Psi4 stopped on: Monday, 29 November 2021 04:12PM
    Psi4 wall time for execution: 0:00:58.35

*** Psi4 exiting successfully. Buy a developer a beer!
