
    -----------------------------------------------------------------------
          Psi4: An Open-Source Ab Initio Electronic Structure Package
                               Psi4 1.4.1 release

                         Git: Rev {HEAD} cd00f19


    D. G. A. Smith, L. A. Burns, A. C. Simmonett, R. M. Parrish,
    M. C. Schieber, R. Galvelis, P. Kraus, H. Kruse, R. Di Remigio,
    A. Alenaizan, A. M. James, S. Lehtola, J. P. Misiewicz, M. Scheurer,
    R. A. Shaw, J. B. Schriber, Y. Xie, Z. L. Glick, D. A. Sirianni,
    J. S. O'Brien, J. M. Waldrop, A. Kumar, E. G. Hohenstein,
    B. P. Pritchard, B. R. Brooks, H. F. Schaefer III, A. Yu. Sokolov,
    K. Patkowski, A. E. DePrince III, U. Bozkaya, R. A. King,
    F. A. Evangelista, J. M. Turney, T. D. Crawford, C. D. Sherrill,
    J. Chem. Phys. 152(18) 184108 (2020). https://doi.org/10.1063/5.0006002

                            Additional Code Authors
    E. T. Seidl, C. L. Janssen, E. F. Valeev, M. L. Leininger,
    J. F. Gonthier, R. M. Richard, H. R. McAlexander, M. Saitow, X. Wang,
    P. Verma, and M. H. Lechner

             Previous Authors, Complete List of Code Contributors,
                       and Citations for Specific Modules
    https://github.com/psi4/psi4/blob/master/codemeta.json
    https://github.com/psi4/psi4/graphs/contributors
    http://psicode.org/psi4manual/master/introduction.html#citing-psifour

    -----------------------------------------------------------------------


    Psi4 started on: Monday, 29 November 2021 04:10PM

    Process ID: 65825
    Host:       atl1-1-01-015-19-r.pace.gatech.edu
    PSIDATADIR: /storage/home/hhive1/csargent30/data/miniconda3/envs/psi4/share/psi4
    Memory:     500.0 MiB
    Threads:    2

  ==> Input File <==

--------------------------------------------------------------------------
# PSI4 file produced by CrystaLattE

# Generated from:               pyrazine.xyz
# Psithon input for N-mer:      2mer-0+61
# Number of atoms per monomer:  [10, 10]
# Number of replicas:           2
# COM priority:                 7.999235773177e-05
# Minimum COM separations:      12.282
# Separation priority:          2.458973086770e-04
# Minimum monomer separations:  8.447
# Cutoff priority:              1.540535464461e-05
# Nuclear repulsion energy:     501.6623346717689

memory 7 GB

molecule Dimer_0_61 {
  N           -1.33084758       0.98032658       0.42627037
  N            3.95377333       0.98032658       0.42627037
  H            3.56713674       4.35218569      -0.94230973
  H           -0.94421098       4.35218569      -0.94230973
  H           -0.94421098      -2.39153253       1.79485047
  H            3.56713674      -2.39153253       1.79485047
  C            2.62292576       2.94097974      -0.42627037
  C            0.00000000       2.94097974      -0.42627037
  C            0.00000000      -0.98032658       1.27881112
  C            2.62292576      -0.98032658       1.27881112
--
  N           -1.33084758     -21.13022498       7.48080697
  N            3.95377333     -21.13022498       7.48080697
  H            3.56713674     -17.75836587       6.11222687
  H           -0.94421098     -17.75836587       6.11222687
  H           -0.94421098     -24.50208409       8.84938707
  H            3.56713674     -24.50208409       8.84938707
  C            2.62292576     -19.16957182       6.62826622
  C            0.00000000     -19.16957182       6.62826622
  C            0.00000000     -23.09087814       8.33334772
  C            2.62292576     -23.09087814       8.33334772
units = au
no_com
no_reorient
}

set {
  e_convergence 10
  d_convergence 10
  scf_type df
  mp2_type df
  cc_type df
  freeze_core true
}

energy('sapt0/aug-cc-pvdz')

--------------------------------------------------------------------------

  Memory set to   6.519 GiB by Python driver.

Scratch directory: /tmp/

Scratch directory: /tmp/

  //>>>>>>>>>>>>>>>>>>>>>>>>>>>>>>>>>>>//
  //              Dimer HF             //
  //<<<<<<<<<<<<<<<<<<<<<<<<<<<<<<<<<<<//


*** tstart() called on atl1-1-01-015-19-r.pace.gatech.edu
*** at Mon Nov 29 16:10:39 2021

   => Loading Basis Set <=

    Name: AUG-CC-PVDZ
    Role: ORBITAL
    Keyword: BASIS
    atoms 1-2, 11-12  entry N          line   218 file /storage/home/hhive1/csargent30/data/miniconda3/envs/psi4/share/psi4/basis/aug-cc-pvdz.gbs
    atoms 3-6, 13-16  entry H          line    40 file /storage/home/hhive1/csargent30/data/miniconda3/envs/psi4/share/psi4/basis/aug-cc-pvdz.gbs
    atoms 7-10, 17-20 entry C          line   182 file /storage/home/hhive1/csargent30/data/miniconda3/envs/psi4/share/psi4/basis/aug-cc-pvdz.gbs


         ---------------------------------------------------------
                                   SCF
               by Justin Turney, Rob Parrish, Andy Simmonett
                          and Daniel G. A. Smith
                              RHF Reference
                        2 Threads,   6675 MiB Core
         ---------------------------------------------------------

  ==> Geometry <==

    Molecular point group: c1
    Full point group: C1

    Geometry (in Bohr), charge = 0, multiplicity = 1:

       Center              X                  Y                   Z               Mass
    ------------   -----------------  -----------------  -----------------  -----------------
         N           -1.330847580000     0.980326580000     0.426270370000    14.003074004430
         N            3.953773330000     0.980326580000     0.426270370000    14.003074004430
         H            3.567136740000     4.352185690000    -0.942309730000     1.007825032230
         H           -0.944210980000     4.352185690000    -0.942309730000     1.007825032230
         H           -0.944210980000    -2.391532530000     1.794850470000     1.007825032230
         H            3.567136740000    -2.391532530000     1.794850470000     1.007825032230
         C            2.622925760000     2.940979740000    -0.426270370000    12.000000000000
         C            0.000000000000     2.940979740000    -0.426270370000    12.000000000000
         C            0.000000000000    -0.980326580000     1.278811120000    12.000000000000
         C            2.622925760000    -0.980326580000     1.278811120000    12.000000000000
         N           -1.330847580000   -21.130224980000     7.480806970000    14.003074004430
         N            3.953773330000   -21.130224980000     7.480806970000    14.003074004430
         H            3.567136740000   -17.758365870000     6.112226870000     1.007825032230
         H           -0.944210980000   -17.758365870000     6.112226870000     1.007825032230
         H           -0.944210980000   -24.502084090000     8.849387070000     1.007825032230
         H            3.567136740000   -24.502084090000     8.849387070000     1.007825032230
         C            2.622925760000   -19.169571820000     6.628266220000    12.000000000000
         C            0.000000000000   -19.169571820000     6.628266220000    12.000000000000
         C            0.000000000000   -23.090878140000     8.333347720000    12.000000000000
         C            2.622925760000   -23.090878140000     8.333347720000    12.000000000000

  Running in c1 symmetry.

  Rotational constants: A =      0.07633  B =      0.00147  C =      0.00144 [cm^-1]
  Rotational constants: A =   2288.22718  B =     44.04805  C =     43.29185 [MHz]
  Nuclear repulsion =  501.662334595874711

  Charge       = 0
  Multiplicity = 1
  Electrons    = 84
  Nalpha       = 42
  Nbeta        = 42

  ==> Algorithm <==

  SCF Algorithm Type is DF.
  DIIS enabled.
  MOM disabled.
  Fractional occupation disabled.
  Guess Type is SAD.
  Energy threshold   = 1.00e-10
  Density threshold  = 1.00e-10
  Integral threshold = 1.00e-12

  ==> Primary Basis <==

  Basis Set: AUG-CC-PVDZ
    Blend: AUG-CC-PVDZ
    Number of shells: 148
    Number of basis functions: 348
    Number of Cartesian functions: 372
    Spherical Harmonics?: true
    Max angular momentum: 2

   => Loading Basis Set <=

    Name: (AUG-CC-PVDZ AUX)
    Role: JKFIT
    Keyword: DF_BASIS_SCF
    atoms 1-2, 11-12  entry N          line   212 file /storage/home/hhive1/csargent30/data/miniconda3/envs/psi4/share/psi4/basis/aug-cc-pvdz-jkfit.gbs
    atoms 3-6, 13-16  entry H          line    70 file /storage/home/hhive1/csargent30/data/miniconda3/envs/psi4/share/psi4/basis/aug-cc-pvdz-jkfit.gbs
    atoms 7-10, 17-20 entry C          line   154 file /storage/home/hhive1/csargent30/data/miniconda3/envs/psi4/share/psi4/basis/aug-cc-pvdz-jkfit.gbs

  ==> Integral Setup <==

  ==> DiskDFJK: Density-Fitted J/K Matrices <==

    J tasked:                  Yes
    K tasked:                  Yes
    wK tasked:                  No
    OpenMP threads:              2
    Integrals threads:           2
    Memory [MiB]:             5006
    Algorithm:                Core
    Integral Cache:           SAVE
    Schwarz Cutoff:          1E-12
    Fitting Condition:       1E-10

   => Auxiliary Basis Set <=

  Basis Set: (AUG-CC-PVDZ AUX)
    Blend: AUG-CC-PVDZ-JKFIT
    Number of shells: 432
    Number of basis functions: 1288
    Number of Cartesian functions: 1492
    Spherical Harmonics?: true
    Max angular momentum: 3

  Minimum eigenvalue in the overlap matrix is 8.4014067965E-06.
  Reciprocal condition number of the overlap matrix is 6.5519169278E-07.
    Using symmetric orthogonalization.

  ==> Pre-Iterations <==

  SCF Guess: Superposition of Atomic Densities via on-the-fly atomic UHF (no occupation information).

   -------------------------
    Irrep   Nso     Nmo
   -------------------------
     A        348     348
   -------------------------
    Total     348     348
   -------------------------

  ==> Iterations <==

                           Total Energy        Delta E     RMS |[F,P]|

   @DF-RHF iter SAD:  -524.65046297908134   -5.24650e+02   0.00000e+00
   @DF-RHF iter   1:  -525.07873730467941   -4.28274e-01   1.58388e-03 DIIS
   @DF-RHF iter   2:  -525.25750453397552   -1.78767e-01   5.81018e-04 DIIS
   @DF-RHF iter   3:  -525.27718639271825   -1.96819e-02   1.81453e-04 DIIS
   @DF-RHF iter   4:  -525.27963731676186   -2.45092e-03   5.34327e-05 DIIS
   @DF-RHF iter   5:  -525.27981671363830   -1.79397e-04   1.06861e-05 DIIS
   @DF-RHF iter   6:  -525.27982981944774   -1.31058e-05   3.47044e-06 DIIS
   @DF-RHF iter   7:  -525.27983172650283   -1.90706e-06   9.07168e-07 DIIS
   @DF-RHF iter   8:  -525.27983187444761   -1.47945e-07   1.54500e-07 DIIS
   @DF-RHF iter   9:  -525.27983187844700   -3.99939e-09   6.77262e-08 DIIS
   @DF-RHF iter  10:  -525.27983187886775   -4.20755e-10   1.69730e-08 DIIS
   @DF-RHF iter  11:  -525.27983187891130   -4.35421e-11   2.67539e-09 DIIS
   @DF-RHF iter  12:  -525.27983187891232   -1.02318e-12   6.82311e-10 DIIS
   @DF-RHF iter  13:  -525.27983187891277   -4.54747e-13   2.86036e-10 DIIS
   @DF-RHF iter  14:  -525.27983187891277    0.00000e+00   1.19306e-10 DIIS
   @DF-RHF iter  15:  -525.27983187891243    3.41061e-13   4.44466e-11 DIIS
  Energy and wave function converged.


  ==> Post-Iterations <==

    Orbital Energies [Eh]
    ---------------------

    Doubly Occupied:

       1A    -15.598804     2A    -15.598804     3A    -15.598785
       4A    -15.598785     5A    -11.275019     6A    -11.275019
       7A    -11.274919     8A    -11.274919     9A    -11.273769
      10A    -11.273769    11A    -11.273680    12A    -11.273680
      13A     -1.314085    14A     -1.314085    15A     -1.224910
      16A     -1.224910    17A     -1.077560    18A     -1.077559
      19A     -0.923413    20A     -0.923411    21A     -0.920045
      22A     -0.920044    23A     -0.761387    24A     -0.761385
      25A     -0.739172    26A     -0.739172    27A     -0.706962
      28A     -0.706960    29A     -0.648452    30A     -0.648449
      31A     -0.581472    32A     -0.581472    33A     -0.575104
      34A     -0.575104    35A     -0.497832    36A     -0.497832
      37A     -0.435010    38A     -0.435010    39A     -0.416587
      40A     -0.416587    41A     -0.360680    42A     -0.360679

    Virtual:

      43A      0.024945    44A      0.035889    45A      0.037422
      46A      0.042558    47A      0.050200    48A      0.051632
      49A      0.054468    50A      0.066278    51A      0.066481
      52A      0.066787    53A      0.095687    54A      0.098663
      55A      0.098695    56A      0.104925    57A      0.113345
      58A      0.113651    59A      0.114013    60A      0.114385
      61A      0.116955    62A      0.123503    63A      0.124446
      64A      0.125267    65A      0.131342    66A      0.131640
      67A      0.132569    68A      0.132798    69A      0.155804
      70A      0.156418    71A      0.159305    72A      0.159577
      73A      0.161809    74A      0.165155    75A      0.172915
      76A      0.174574    77A      0.179521    78A      0.185146
      79A      0.186658    80A      0.189267    81A      0.202255
      82A      0.209563    83A      0.212027    84A      0.212129
      85A      0.249355    86A      0.250436    87A      0.266706
      88A      0.267501    89A      0.276832    90A      0.277838
      91A      0.286631    92A      0.287459    93A      0.287887
      94A      0.293272    95A      0.299794    96A      0.309835
      97A      0.309852    98A      0.319846    99A      0.319903
     100A      0.327137   101A      0.352623   102A      0.357135
     103A      0.357137   104A      0.363785   105A      0.364453
     106A      0.378222   107A      0.381136   108A      0.383412
     109A      0.397453   110A      0.403617   111A      0.409485
     112A      0.410241   113A      0.422640   114A      0.427036
     115A      0.432794   116A      0.433393   117A      0.439519
     118A      0.445466   119A      0.451478   120A      0.452059
     121A      0.471000   122A      0.471364   123A      0.491351
     124A      0.491381   125A      0.503801   126A      0.504348
     127A      0.512649   128A      0.518619   129A      0.523318
     130A      0.527985   131A      0.529051   132A      0.529982
     133A      0.553499   134A      0.555418   135A      0.568920
     136A      0.575364   137A      0.586631   138A      0.586999
     139A      0.590385   140A      0.591261   141A      0.592869
     142A      0.593399   143A      0.608015   144A      0.608278
     145A      0.642329   146A      0.643364   147A      0.643671
     148A      0.645229   149A      0.684301   150A      0.684516
     151A      0.686853   152A      0.687275   153A      0.689195
     154A      0.689273   155A      0.689343   156A      0.693398
     157A      0.696315   158A      0.696656   159A      0.703336
     160A      0.710555   161A      0.742943   162A      0.749999
     163A      0.754032   164A      0.754135   165A      0.765625
     166A      0.768315   167A      0.780955   168A      0.780963
     169A      0.798358   170A      0.799730   171A      0.801811
     172A      0.802251   173A      0.817013   174A      0.822697
     175A      0.830324   176A      0.830599   177A      0.845152
     178A      0.849185   179A      0.879499   180A      0.880922
     181A      0.885412   182A      0.886228   183A      0.893847
     184A      0.894083   185A      0.928513   186A      0.928591
     187A      0.938518   188A      0.939098   189A      0.948440
     190A      0.948954   191A      0.995711   192A      0.996124
     193A      0.996500   194A      1.004222   195A      1.012336
     196A      1.012379   197A      1.032254   198A      1.037065
     199A      1.050455   200A      1.050475   201A      1.088641
     202A      1.088728   203A      1.099427   204A      1.100823
     205A      1.121864   206A      1.123296   207A      1.123611
     208A      1.124257   209A      1.133651   210A      1.134350
     211A      1.157302   212A      1.159015   213A      1.172842
     214A      1.172848   215A      1.234484   216A      1.236720
     217A      1.237774   218A      1.238336   219A      1.308640
     220A      1.310797   221A      1.330327   222A      1.331119
     223A      1.413736   224A      1.413885   225A      1.450369
     226A      1.452041   227A      1.484866   228A      1.486456
     229A      1.487137   230A      1.489299   231A      1.496822
     232A      1.500137   233A      1.501838   234A      1.504349
     235A      1.515583   236A      1.521317   237A      1.571748
     238A      1.572082   239A      1.573532   240A      1.575275
     241A      1.586982   242A      1.590460   243A      1.632482
     244A      1.636709   245A      1.637181   246A      1.647832
     247A      1.648116   248A      1.657499   249A      1.675047
     250A      1.677804   251A      1.716206   252A      1.716492
     253A      1.745828   254A      1.745997   255A      1.754274
     256A      1.754453   257A      1.783364   258A      1.784302
     259A      1.814967   260A      1.814973   261A      1.892558
     262A      1.892592   263A      1.915212   264A      1.915643
     265A      1.963798   266A      1.964808   267A      1.986880
     268A      1.987091   269A      2.030398   270A      2.031125
     271A      2.090874   272A      2.090938   273A      2.099568
     274A      2.101097   275A      2.142110   276A      2.142365
     277A      2.162404   278A      2.163107   279A      2.189662
     280A      2.189803   281A      2.192307   282A      2.194710
     283A      2.199504   284A      2.200794   285A      2.201645
     286A      2.201661   287A      2.226869   288A      2.227174
     289A      2.311745   290A      2.312907   291A      2.353769
     292A      2.356284   293A      2.429973   294A      2.430641
     295A      2.438103   296A      2.438416   297A      2.518527
     298A      2.518894   299A      2.521633   300A      2.521649
     301A      2.583460   302A      2.585957   303A      2.605485
     304A      2.605769   305A      2.663470   306A      2.666313
     307A      2.674409   308A      2.675326   309A      2.683885
     310A      2.693213   311A      2.713346   312A      2.713982
     313A      2.717294   314A      2.718591   315A      2.843285
     316A      2.843291   317A      2.865000   318A      2.865142
     319A      2.936673   320A      2.944594   321A      3.000879
     322A      3.002297   323A      3.017067   324A      3.017288
     325A      3.031211   326A      3.031805   327A      3.093396
     328A      3.093726   329A      3.218479   330A      3.232908
     331A      3.255248   332A      3.255256   333A      3.284018
     334A      3.285494   335A      3.364673   336A      3.367940
     337A      3.412983   338A      3.413254   339A      3.514053
     340A      3.514299   341A      3.589298   342A      3.592021
     343A      3.627003   344A      3.627058   345A      3.976298
     346A      3.976979   347A      4.252715   348A      4.252768

    Final Occupation by Irrep:
              A
    DOCC [    42 ]

  @DF-RHF Final Energy:  -525.27983187891243

   => Energetics <=

    Nuclear Repulsion Energy =            501.6623345958747109
    One-Electron Energy =               -1703.9737699224599510
    Two-Electron Energy =                 677.0316034476728646
    Total Energy =                       -525.2798318789124323

Computation Completed


Properties will be evaluated at   0.000000,   0.000000,   0.000000 [a0]

Properties computed using the SCF density matrix

  Nuclear Dipole Moment: [e a0]
     X:   110.1629      Y:  -846.2957      Z:   332.0972

  Electronic Dipole Moment: [e a0]
     X:  -110.1629      Y:   846.2957      Z:  -332.0972

  Dipole Moment: [e a0]
     X:     0.0000      Y:     0.0000      Z:    -0.0000     Total:     0.0000

  Dipole Moment: [D]
     X:     0.0000      Y:     0.0000      Z:    -0.0000     Total:     0.0000


*** tstop() called on atl1-1-01-015-19-r.pace.gatech.edu at Mon Nov 29 16:10:55 2021
Module time:
	user time   =      28.99 seconds =       0.48 minutes
	system time =       1.03 seconds =       0.02 minutes
	total time  =         16 seconds =       0.27 minutes
Total time:
	user time   =      28.99 seconds =       0.48 minutes
	system time =       1.03 seconds =       0.02 minutes
	total time  =         16 seconds =       0.27 minutes

  //>>>>>>>>>>>>>>>>>>>>>>>>>>>>>>>>>>>//
  //            Monomer A HF           //
  //<<<<<<<<<<<<<<<<<<<<<<<<<<<<<<<<<<<//


*** tstart() called on atl1-1-01-015-19-r.pace.gatech.edu
*** at Mon Nov 29 16:10:55 2021

   => Loading Basis Set <=

    Name: AUG-CC-PVDZ
    Role: ORBITAL
    Keyword: BASIS
    atoms 1-2, 11-12  entry N          line   218 file /storage/home/hhive1/csargent30/data/miniconda3/envs/psi4/share/psi4/basis/aug-cc-pvdz.gbs
    atoms 3-6, 13-16  entry H          line    40 file /storage/home/hhive1/csargent30/data/miniconda3/envs/psi4/share/psi4/basis/aug-cc-pvdz.gbs
    atoms 7-10, 17-20 entry C          line   182 file /storage/home/hhive1/csargent30/data/miniconda3/envs/psi4/share/psi4/basis/aug-cc-pvdz.gbs


         ---------------------------------------------------------
                                   SCF
               by Justin Turney, Rob Parrish, Andy Simmonett
                          and Daniel G. A. Smith
                              RHF Reference
                        2 Threads,   6675 MiB Core
         ---------------------------------------------------------

  ==> Geometry <==

    Molecular point group: c1
    Full point group: C1

    Geometry (in Bohr), charge = 0, multiplicity = 1:

       Center              X                  Y                   Z               Mass
    ------------   -----------------  -----------------  -----------------  -----------------
         N           -1.330847580000     0.980326580000     0.426270370000    14.003074004430
         N            3.953773330000     0.980326580000     0.426270370000    14.003074004430
         H            3.567136740000     4.352185690000    -0.942309730000     1.007825032230
         H           -0.944210980000     4.352185690000    -0.942309730000     1.007825032230
         H           -0.944210980000    -2.391532530000     1.794850470000     1.007825032230
         H            3.567136740000    -2.391532530000     1.794850470000     1.007825032230
         C            2.622925760000     2.940979740000    -0.426270370000    12.000000000000
         C            0.000000000000     2.940979740000    -0.426270370000    12.000000000000
         C            0.000000000000    -0.980326580000     1.278811120000    12.000000000000
         C            2.622925760000    -0.980326580000     1.278811120000    12.000000000000
      Gh(N)          -1.330847580000   -21.130224980000     7.480806970000    14.003074004430
      Gh(N)           3.953773330000   -21.130224980000     7.480806970000    14.003074004430
      Gh(H)           3.567136740000   -17.758365870000     6.112226870000     1.007825032230
      Gh(H)          -0.944210980000   -17.758365870000     6.112226870000     1.007825032230
      Gh(H)          -0.944210980000   -24.502084090000     8.849387070000     1.007825032230
      Gh(H)           3.567136740000   -24.502084090000     8.849387070000     1.007825032230
      Gh(C)           2.622925760000   -19.169571820000     6.628266220000    12.000000000000
      Gh(C)           0.000000000000   -19.169571820000     6.628266220000    12.000000000000
      Gh(C)           0.000000000000   -23.090878140000     8.333347720000    12.000000000000
      Gh(C)           2.622925760000   -23.090878140000     8.333347720000    12.000000000000

  Running in c1 symmetry.

  Rotational constants: A =      0.07633  B =      0.00147  C =      0.00144 [cm^-1]
  Rotational constants: A =   2288.22718  B =     44.04805  C =     43.29185 [MHz]
  Nuclear repulsion =  212.551731110485349

  Charge       = 0
  Multiplicity = 1
  Electrons    = 42
  Nalpha       = 21
  Nbeta        = 21

  ==> Algorithm <==

  SCF Algorithm Type is DF.
  DIIS enabled.
  MOM disabled.
  Fractional occupation disabled.
  Guess Type is SAD.
  Energy threshold   = 1.00e-10
  Density threshold  = 1.00e-10
  Integral threshold = 1.00e-12

  ==> Primary Basis <==

  Basis Set: AUG-CC-PVDZ
    Blend: AUG-CC-PVDZ
    Number of shells: 148
    Number of basis functions: 348
    Number of Cartesian functions: 372
    Spherical Harmonics?: true
    Max angular momentum: 2

   => Loading Basis Set <=

    Name: (AUG-CC-PVDZ AUX)
    Role: JKFIT
    Keyword: DF_BASIS_SCF
    atoms 1-2, 11-12  entry N          line   212 file /storage/home/hhive1/csargent30/data/miniconda3/envs/psi4/share/psi4/basis/aug-cc-pvdz-jkfit.gbs
    atoms 3-6, 13-16  entry H          line    70 file /storage/home/hhive1/csargent30/data/miniconda3/envs/psi4/share/psi4/basis/aug-cc-pvdz-jkfit.gbs
    atoms 7-10, 17-20 entry C          line   154 file /storage/home/hhive1/csargent30/data/miniconda3/envs/psi4/share/psi4/basis/aug-cc-pvdz-jkfit.gbs

  ==> Integral Setup <==

  ==> DiskDFJK: Density-Fitted J/K Matrices <==

    J tasked:                  Yes
    K tasked:                  Yes
    wK tasked:                  No
    OpenMP threads:              2
    Integrals threads:           2
    Memory [MiB]:             5006
    Algorithm:                Core
    Integral Cache:           LOAD
    Schwarz Cutoff:          1E-12
    Fitting Condition:       1E-10

   => Auxiliary Basis Set <=

  Basis Set: (AUG-CC-PVDZ AUX)
    Blend: AUG-CC-PVDZ-JKFIT
    Number of shells: 432
    Number of basis functions: 1288
    Number of Cartesian functions: 1492
    Spherical Harmonics?: true
    Max angular momentum: 3

  Minimum eigenvalue in the overlap matrix is 8.4014067965E-06.
  Reciprocal condition number of the overlap matrix is 6.5519169278E-07.
    Using symmetric orthogonalization.

  ==> Pre-Iterations <==

  SCF Guess: Superposition of Atomic Densities via on-the-fly atomic UHF (no occupation information).

   -------------------------
    Irrep   Nso     Nmo
   -------------------------
     A        348     348
   -------------------------
    Total     348     348
   -------------------------

  ==> Iterations <==

                           Total Energy        Delta E     RMS |[F,P]|

   @DF-RHF iter SAD:  -262.32523127125376   -2.62325e+02   0.00000e+00
   @DF-RHF iter   1:  -262.53941348171350   -2.14182e-01   1.11988e-03 DIIS
   @DF-RHF iter   2:  -262.62879487749012   -8.93814e-02   4.10676e-04 DIIS
   @DF-RHF iter   3:  -262.63862971898823   -9.83484e-03   1.28248e-04 DIIS
   @DF-RHF iter   4:  -262.63985446796283   -1.22475e-03   3.77608e-05 DIIS
   @DF-RHF iter   5:  -262.63994407117707   -8.96032e-05   7.55571e-06 DIIS
   @DF-RHF iter   6:  -262.63995062145284   -6.55028e-06   2.45263e-06 DIIS
   @DF-RHF iter   7:  -262.63995157381288   -9.52360e-07   6.40126e-07 DIIS
   @DF-RHF iter   8:  -262.63995164770029   -7.38874e-08   9.91690e-08 DIIS
   @DF-RHF iter   9:  -262.63995164968657   -1.98628e-09   1.88236e-08 DIIS
   @DF-RHF iter  10:  -262.63995164975779   -7.12248e-11   3.19310e-09 DIIS
   @DF-RHF iter  11:  -262.63995164975967   -1.87583e-12   5.35326e-10 DIIS
   @DF-RHF iter  12:  -262.63995164975938    2.84217e-13   1.69471e-10 DIIS
   @DF-RHF iter  13:  -262.63995164975961   -2.27374e-13   7.79822e-11 DIIS
  Energy and wave function converged.


  ==> Post-Iterations <==

    Orbital Energies [Eh]
    ---------------------

    Doubly Occupied:

       1A    -15.598070     2A    -15.598051     3A    -11.274237
       4A    -11.274192     5A    -11.272974     6A    -11.272966
       7A     -1.313346     8A     -1.224175     9A     -1.076803
      10A     -0.922663    11A     -0.919282    12A     -0.760637
      13A     -0.738401    14A     -0.706215    15A     -0.647688
      16A     -0.580711    17A     -0.574370    18A     -0.497112
      19A     -0.434288    20A     -0.415855    21A     -0.359924

    Virtual:

      22A      0.020114    23A      0.030953    24A      0.037228
      25A      0.039174    26A      0.047916    27A      0.048197
      28A      0.054498    29A      0.065845    30A      0.067105
      31A      0.078894    32A      0.084551    33A      0.099335
      34A      0.102430    35A      0.103607    36A      0.107762
      37A      0.107895    38A      0.114190    39A      0.114993
      40A      0.121599    41A      0.124788    42A      0.125560
      43A      0.127563    44A      0.127910    45A      0.130170
      46A      0.132892    47A      0.137852    48A      0.150630
      49A      0.152583    50A      0.158440    51A      0.159780
      52A      0.163784    53A      0.169955    54A      0.171267
      55A      0.174583    56A      0.184361    57A      0.186979
      58A      0.200832    59A      0.203013    60A      0.203768
      61A      0.206134    62A      0.212685    63A      0.228213
      64A      0.238673    65A      0.240431    66A      0.250644
      67A      0.254589    68A      0.267797    69A      0.270608
      70A      0.278090    71A      0.287849    72A      0.291548
      73A      0.301883    74A      0.307997    75A      0.317343
      76A      0.320405    77A      0.328007    78A      0.331151
      79A      0.332042    80A      0.345264    81A      0.357922
      82A      0.365285    83A      0.370197    84A      0.379485
      85A      0.383365    86A      0.384780    87A      0.400291
      88A      0.402342    89A      0.410484    90A      0.420029
      91A      0.424087    92A      0.427154    93A      0.433971
      94A      0.441328    95A      0.442145    96A      0.452538
      97A      0.459866    98A      0.461877    99A      0.471951
     100A      0.475243   101A      0.478406   102A      0.492145
     103A      0.504869   104A      0.507886   105A      0.516200
     106A      0.523329   107A      0.526735   108A      0.529089
     109A      0.539808   110A      0.554873   111A      0.558903
     112A      0.560835   113A      0.563890   114A      0.573724
     115A      0.584584   116A      0.587564   117A      0.591664
     118A      0.593860   119A      0.596252   120A      0.608941
     121A      0.614501   122A      0.619349   123A      0.635628
     124A      0.643570   125A      0.645325   126A      0.648505
     127A      0.650665   128A      0.680603   129A      0.684806
     130A      0.686180   131A      0.688239   132A      0.690027
     133A      0.695943   134A      0.696172   135A      0.707731
     136A      0.718962   137A      0.729467   138A      0.746139
     139A      0.748980   140A      0.754954   141A      0.767518
     142A      0.774856   143A      0.781522   144A      0.793896
     145A      0.800102   146A      0.802756   147A      0.810393
     148A      0.811541   149A      0.820741   150A      0.823961
     151A      0.831153   152A      0.847223   153A      0.847724
     154A      0.849162   155A      0.869741   156A      0.881034
     157A      0.886617   158A      0.887414   159A      0.894704
     160A      0.905281   161A      0.928704   162A      0.929331
     163A      0.939543   164A      0.946849   165A      0.949522
     166A      0.969939   167A      0.976140   168A      0.985869
     169A      0.996857   170A      1.000782   171A      1.013048
     172A      1.031564   173A      1.035386   174A      1.046669
     175A      1.051212   176A      1.076012   177A      1.089402
     178A      1.089526   179A      1.100792   180A      1.123697
     181A      1.124157   182A      1.130752   183A      1.134708
     184A      1.139934   185A      1.158902   186A      1.167770
     187A      1.169920   188A      1.173586   189A      1.192215
     190A      1.196112   191A      1.199711   192A      1.222610
     193A      1.236489   194A      1.238846   195A      1.250300
     196A      1.306996   197A      1.310437   198A      1.317522
     199A      1.326267   200A      1.328843   201A      1.331400
     202A      1.347027   203A      1.388807   204A      1.414600
     205A      1.448215   206A      1.451884   207A      1.454798
     208A      1.480667   209A      1.486218   210A      1.487273
     211A      1.489098   212A      1.499722   213A      1.503545
     214A      1.519249   215A      1.572811   216A      1.575315
     217A      1.589739   218A      1.636957   219A      1.646205
     220A      1.648729   221A      1.658606   222A      1.677157
     223A      1.697549   224A      1.717073   225A      1.746651
     226A      1.755120   227A      1.784508   228A      1.815729
     229A      1.893338   230A      1.916184   231A      1.965025
     232A      1.987724   233A      2.031489   234A      2.069732
     235A      2.091658   236A      2.101081   237A      2.101938
     238A      2.118602   239A      2.142989   240A      2.155814
     241A      2.158750   242A      2.163514   243A      2.190504
     244A      2.194133   245A      2.194341   246A      2.200823
     247A      2.202420   248A      2.227754   249A      2.234221
     250A      2.243953   251A      2.248832   252A      2.309201
     253A      2.312956   254A      2.319424   255A      2.355786
     256A      2.383997   257A      2.419765   258A      2.430955
     259A      2.434600   260A      2.439013   261A      2.440745
     262A      2.471850   263A      2.486514   264A      2.497453
     265A      2.519478   266A      2.522403   267A      2.524433
     268A      2.545175   269A      2.569177   270A      2.585396
     271A      2.591889   272A      2.606377   273A      2.625326
     274A      2.665990   275A      2.675672   276A      2.689120
     277A      2.714393   278A      2.716272   279A      2.718698
     280A      2.725825   281A      2.767132   282A      2.844019
     283A      2.865805   284A      2.903265   285A      2.941282
     286A      2.947662   287A      2.954930   288A      2.972645
     289A      3.002400   290A      3.017917   291A      3.032242
     292A      3.057496   293A      3.065428   294A      3.094321
     295A      3.113148   296A      3.226362   297A      3.244893
     298A      3.256011   299A      3.285472   300A      3.288891
     301A      3.321117   302A      3.337162   303A      3.339734
     304A      3.347842   305A      3.350674   306A      3.367029
     307A      3.412115   308A      3.413853   309A      3.469963
     310A      3.501190   311A      3.514927   312A      3.520632
     313A      3.590965   314A      3.605136   315A      3.606944
     316A      3.627775   317A      3.699738   318A      3.819254
     319A      3.829933   320A      3.940214   321A      3.969568
     322A      3.977400   323A      4.010879   324A      4.195692
     325A      4.245665   326A      4.253495   327A      4.441278
     328A      4.546085   329A      4.578538   330A      4.866935
     331A      4.976298   332A      5.058671   333A      5.263870
     334A      5.315763   335A      5.632548   336A      5.691588
     337A      5.826391   338A      5.951817   339A      6.283908
     340A      6.306637   341A      6.452960   342A      6.630556
     343A     18.124926   344A     18.207419   345A     19.017876
     346A     19.342618   347A     25.286414   348A     25.374044

    Final Occupation by Irrep:
              A
    DOCC [    21 ]

  @DF-RHF Final Energy:  -262.63995164975961

   => Energetics <=

    Nuclear Repulsion Energy =            212.5517311104853491
    One-Electron Energy =                -775.4594432093700789
    Two-Electron Energy =                 300.2677604491251486
    Total Energy =                       -262.6399516497596096

Computation Completed


Properties will be evaluated at   0.000000,   0.000000,   0.000000 [a0]

Properties computed using the SCF density matrix

  Nuclear Dipole Moment: [e a0]
     X:    55.0814      Y:    41.1737      Z:    17.9034

  Electronic Dipole Moment: [e a0]
     X:   -55.0814      Y:   -41.1737      Z:   -17.9034

  Dipole Moment: [e a0]
     X:     0.0000      Y:    -0.0000      Z:     0.0000     Total:     0.0000

  Dipole Moment: [D]
     X:     0.0000      Y:    -0.0000      Z:     0.0000     Total:     0.0000


*** tstop() called on atl1-1-01-015-19-r.pace.gatech.edu at Mon Nov 29 16:11:05 2021
Module time:
	user time   =      18.03 seconds =       0.30 minutes
	system time =       0.53 seconds =       0.01 minutes
	total time  =         10 seconds =       0.17 minutes
Total time:
	user time   =      47.03 seconds =       0.78 minutes
	system time =       1.56 seconds =       0.03 minutes
	total time  =         26 seconds =       0.43 minutes

  //>>>>>>>>>>>>>>>>>>>>>>>>>>>>>>>>>>>//
  //            Monomer B HF           //
  //<<<<<<<<<<<<<<<<<<<<<<<<<<<<<<<<<<<//


*** tstart() called on atl1-1-01-015-19-r.pace.gatech.edu
*** at Mon Nov 29 16:11:05 2021

   => Loading Basis Set <=

    Name: AUG-CC-PVDZ
    Role: ORBITAL
    Keyword: BASIS
    atoms 1-2, 11-12  entry N          line   218 file /storage/home/hhive1/csargent30/data/miniconda3/envs/psi4/share/psi4/basis/aug-cc-pvdz.gbs
    atoms 3-6, 13-16  entry H          line    40 file /storage/home/hhive1/csargent30/data/miniconda3/envs/psi4/share/psi4/basis/aug-cc-pvdz.gbs
    atoms 7-10, 17-20 entry C          line   182 file /storage/home/hhive1/csargent30/data/miniconda3/envs/psi4/share/psi4/basis/aug-cc-pvdz.gbs


         ---------------------------------------------------------
                                   SCF
               by Justin Turney, Rob Parrish, Andy Simmonett
                          and Daniel G. A. Smith
                              RHF Reference
                        2 Threads,   6675 MiB Core
         ---------------------------------------------------------

  ==> Geometry <==

    Molecular point group: c1
    Full point group: C1

    Geometry (in Bohr), charge = 0, multiplicity = 1:

       Center              X                  Y                   Z               Mass
    ------------   -----------------  -----------------  -----------------  -----------------
      Gh(N)          -1.330847580000     0.980326580000     0.426270370000    14.003074004430
      Gh(N)           3.953773330000     0.980326580000     0.426270370000    14.003074004430
      Gh(H)           3.567136740000     4.352185690000    -0.942309730000     1.007825032230
      Gh(H)          -0.944210980000     4.352185690000    -0.942309730000     1.007825032230
      Gh(H)          -0.944210980000    -2.391532530000     1.794850470000     1.007825032230
      Gh(H)           3.567136740000    -2.391532530000     1.794850470000     1.007825032230
      Gh(C)           2.622925760000     2.940979740000    -0.426270370000    12.000000000000
      Gh(C)           0.000000000000     2.940979740000    -0.426270370000    12.000000000000
      Gh(C)           0.000000000000    -0.980326580000     1.278811120000    12.000000000000
      Gh(C)           2.622925760000    -0.980326580000     1.278811120000    12.000000000000
         N           -1.330847580000   -21.130224980000     7.480806970000    14.003074004430
         N            3.953773330000   -21.130224980000     7.480806970000    14.003074004430
         H            3.567136740000   -17.758365870000     6.112226870000     1.007825032230
         H           -0.944210980000   -17.758365870000     6.112226870000     1.007825032230
         H           -0.944210980000   -24.502084090000     8.849387070000     1.007825032230
         H            3.567136740000   -24.502084090000     8.849387070000     1.007825032230
         C            2.622925760000   -19.169571820000     6.628266220000    12.000000000000
         C            0.000000000000   -19.169571820000     6.628266220000    12.000000000000
         C            0.000000000000   -23.090878140000     8.333347720000    12.000000000000
         C            2.622925760000   -23.090878140000     8.333347720000    12.000000000000

  Running in c1 symmetry.

  Rotational constants: A =      0.07633  B =      0.00147  C =      0.00144 [cm^-1]
  Rotational constants: A =   2288.22718  B =     44.04805  C =     43.29185 [MHz]
  Nuclear repulsion =  212.551731042300560

  Charge       = 0
  Multiplicity = 1
  Electrons    = 42
  Nalpha       = 21
  Nbeta        = 21

  ==> Algorithm <==

  SCF Algorithm Type is DF.
  DIIS enabled.
  MOM disabled.
  Fractional occupation disabled.
  Guess Type is SAD.
  Energy threshold   = 1.00e-10
  Density threshold  = 1.00e-10
  Integral threshold = 1.00e-12

  ==> Primary Basis <==

  Basis Set: AUG-CC-PVDZ
    Blend: AUG-CC-PVDZ
    Number of shells: 148
    Number of basis functions: 348
    Number of Cartesian functions: 372
    Spherical Harmonics?: true
    Max angular momentum: 2

   => Loading Basis Set <=

    Name: (AUG-CC-PVDZ AUX)
    Role: JKFIT
    Keyword: DF_BASIS_SCF
    atoms 1-2, 11-12  entry N          line   212 file /storage/home/hhive1/csargent30/data/miniconda3/envs/psi4/share/psi4/basis/aug-cc-pvdz-jkfit.gbs
    atoms 3-6, 13-16  entry H          line    70 file /storage/home/hhive1/csargent30/data/miniconda3/envs/psi4/share/psi4/basis/aug-cc-pvdz-jkfit.gbs
    atoms 7-10, 17-20 entry C          line   154 file /storage/home/hhive1/csargent30/data/miniconda3/envs/psi4/share/psi4/basis/aug-cc-pvdz-jkfit.gbs

  ==> Integral Setup <==

  ==> DiskDFJK: Density-Fitted J/K Matrices <==

    J tasked:                  Yes
    K tasked:                  Yes
    wK tasked:                  No
    OpenMP threads:              2
    Integrals threads:           2
    Memory [MiB]:             5006
    Algorithm:                Core
    Integral Cache:           LOAD
    Schwarz Cutoff:          1E-12
    Fitting Condition:       1E-10

   => Auxiliary Basis Set <=

  Basis Set: (AUG-CC-PVDZ AUX)
    Blend: AUG-CC-PVDZ-JKFIT
    Number of shells: 432
    Number of basis functions: 1288
    Number of Cartesian functions: 1492
    Spherical Harmonics?: true
    Max angular momentum: 3

  Minimum eigenvalue in the overlap matrix is 8.4014067965E-06.
  Reciprocal condition number of the overlap matrix is 6.5519169278E-07.
    Using symmetric orthogonalization.

  ==> Pre-Iterations <==

  SCF Guess: Superposition of Atomic Densities via on-the-fly atomic UHF (no occupation information).

   -------------------------
    Irrep   Nso     Nmo
   -------------------------
     A        348     348
   -------------------------
    Total     348     348
   -------------------------

  ==> Iterations <==

                           Total Energy        Delta E     RMS |[F,P]|

   @DF-RHF iter SAD:  -262.32523126686624   -2.62325e+02   0.00000e+00
   @DF-RHF iter   1:  -262.53941348338515   -2.14182e-01   1.11988e-03 DIIS
   @DF-RHF iter   2:  -262.62879487904456   -8.93814e-02   4.10676e-04 DIIS
   @DF-RHF iter   3:  -262.63862972049412   -9.83484e-03   1.28248e-04 DIIS
   @DF-RHF iter   4:  -262.63985446946884   -1.22475e-03   3.77608e-05 DIIS
   @DF-RHF iter   5:  -262.63994407268456   -8.96032e-05   7.55571e-06 DIIS
   @DF-RHF iter   6:  -262.63995062295868   -6.55027e-06   2.45263e-06 DIIS
   @DF-RHF iter   7:  -262.63995157532031   -9.52362e-07   6.40126e-07 DIIS
   @DF-RHF iter   8:  -262.63995164920823   -7.38879e-08   9.91690e-08 DIIS
   @DF-RHF iter   9:  -262.63995165119371   -1.98548e-09   1.88236e-08 DIIS
   @DF-RHF iter  10:  -262.63995165126363   -6.99174e-11   3.19310e-09 DIIS
   @DF-RHF iter  11:  -262.63995165126636   -2.72848e-12   5.35320e-10 DIIS
   @DF-RHF iter  12:  -262.63995165126630    5.68434e-14   1.69443e-10 DIIS
   @DF-RHF iter  13:  -262.63995165126630    0.00000e+00   7.79801e-11 DIIS
  Energy and wave function converged.


  ==> Post-Iterations <==

    Orbital Energies [Eh]
    ---------------------

    Doubly Occupied:

       1A    -15.598070     2A    -15.598051     3A    -11.274237
       4A    -11.274192     5A    -11.272974     6A    -11.272966
       7A     -1.313346     8A     -1.224175     9A     -1.076803
      10A     -0.922663    11A     -0.919282    12A     -0.760637
      13A     -0.738401    14A     -0.706215    15A     -0.647688
      16A     -0.580711    17A     -0.574370    18A     -0.497112
      19A     -0.434288    20A     -0.415855    21A     -0.359924

    Virtual:

      22A      0.020114    23A      0.030953    24A      0.037228
      25A      0.039174    26A      0.047916    27A      0.048197
      28A      0.054498    29A      0.065845    30A      0.067105
      31A      0.078894    32A      0.084551    33A      0.099335
      34A      0.102430    35A      0.103607    36A      0.107762
      37A      0.107895    38A      0.114190    39A      0.114993
      40A      0.121599    41A      0.124788    42A      0.125560
      43A      0.127563    44A      0.127910    45A      0.130170
      46A      0.132892    47A      0.137852    48A      0.150630
      49A      0.152583    50A      0.158440    51A      0.159780
      52A      0.163784    53A      0.169955    54A      0.171267
      55A      0.174583    56A      0.184361    57A      0.186979
      58A      0.200832    59A      0.203013    60A      0.203768
      61A      0.206134    62A      0.212685    63A      0.228213
      64A      0.238673    65A      0.240431    66A      0.250644
      67A      0.254589    68A      0.267797    69A      0.270608
      70A      0.278090    71A      0.287849    72A      0.291548
      73A      0.301884    74A      0.307997    75A      0.317343
      76A      0.320405    77A      0.328007    78A      0.331151
      79A      0.332042    80A      0.345264    81A      0.357922
      82A      0.365285    83A      0.370197    84A      0.379485
      85A      0.383365    86A      0.384780    87A      0.400291
      88A      0.402342    89A      0.410484    90A      0.420029
      91A      0.424087    92A      0.427154    93A      0.433971
      94A      0.441328    95A      0.442145    96A      0.452538
      97A      0.459866    98A      0.461877    99A      0.471951
     100A      0.475243   101A      0.478406   102A      0.492145
     103A      0.504869   104A      0.507886   105A      0.516200
     106A      0.523329   107A      0.526735   108A      0.529089
     109A      0.539808   110A      0.554873   111A      0.558903
     112A      0.560835   113A      0.563890   114A      0.573724
     115A      0.584584   116A      0.587564   117A      0.591664
     118A      0.593860   119A      0.596252   120A      0.608941
     121A      0.614501   122A      0.619349   123A      0.635628
     124A      0.643570   125A      0.645325   126A      0.648505
     127A      0.650665   128A      0.680603   129A      0.684806
     130A      0.686180   131A      0.688239   132A      0.690027
     133A      0.695943   134A      0.696172   135A      0.707731
     136A      0.718962   137A      0.729467   138A      0.746139
     139A      0.748980   140A      0.754954   141A      0.767518
     142A      0.774856   143A      0.781522   144A      0.793896
     145A      0.800102   146A      0.802756   147A      0.810393
     148A      0.811541   149A      0.820741   150A      0.823961
     151A      0.831153   152A      0.847223   153A      0.847724
     154A      0.849162   155A      0.869741   156A      0.881034
     157A      0.886617   158A      0.887414   159A      0.894704
     160A      0.905281   161A      0.928704   162A      0.929331
     163A      0.939543   164A      0.946849   165A      0.949522
     166A      0.969939   167A      0.976140   168A      0.985869
     169A      0.996857   170A      1.000782   171A      1.013048
     172A      1.031564   173A      1.035386   174A      1.046669
     175A      1.051212   176A      1.076012   177A      1.089402
     178A      1.089526   179A      1.100792   180A      1.123697
     181A      1.124157   182A      1.130752   183A      1.134708
     184A      1.139934   185A      1.158902   186A      1.167770
     187A      1.169920   188A      1.173586   189A      1.192215
     190A      1.196112   191A      1.199711   192A      1.222610
     193A      1.236489   194A      1.238846   195A      1.250300
     196A      1.306996   197A      1.310437   198A      1.317522
     199A      1.326267   200A      1.328843   201A      1.331400
     202A      1.347027   203A      1.388807   204A      1.414600
     205A      1.448215   206A      1.451884   207A      1.454798
     208A      1.480667   209A      1.486218   210A      1.487273
     211A      1.489098   212A      1.499722   213A      1.503545
     214A      1.519249   215A      1.572811   216A      1.575315
     217A      1.589739   218A      1.636957   219A      1.646205
     220A      1.648729   221A      1.658606   222A      1.677157
     223A      1.697549   224A      1.717073   225A      1.746651
     226A      1.755120   227A      1.784508   228A      1.815729
     229A      1.893338   230A      1.916184   231A      1.965025
     232A      1.987724   233A      2.031489   234A      2.069732
     235A      2.091658   236A      2.101081   237A      2.101938
     238A      2.118602   239A      2.142989   240A      2.155814
     241A      2.158750   242A      2.163514   243A      2.190504
     244A      2.194133   245A      2.194341   246A      2.200823
     247A      2.202420   248A      2.227754   249A      2.234221
     250A      2.243953   251A      2.248832   252A      2.309201
     253A      2.312956   254A      2.319424   255A      2.355786
     256A      2.383997   257A      2.419765   258A      2.430955
     259A      2.434600   260A      2.439013   261A      2.440745
     262A      2.471850   263A      2.486514   264A      2.497453
     265A      2.519478   266A      2.522403   267A      2.524433
     268A      2.545175   269A      2.569177   270A      2.585396
     271A      2.591889   272A      2.606377   273A      2.625326
     274A      2.665990   275A      2.675672   276A      2.689120
     277A      2.714393   278A      2.716272   279A      2.718698
     280A      2.725825   281A      2.767132   282A      2.844019
     283A      2.865805   284A      2.903265   285A      2.941282
     286A      2.947662   287A      2.954930   288A      2.972645
     289A      3.002400   290A      3.017917   291A      3.032242
     292A      3.057496   293A      3.065428   294A      3.094321
     295A      3.113148   296A      3.226362   297A      3.244893
     298A      3.256011   299A      3.285472   300A      3.288891
     301A      3.321117   302A      3.337162   303A      3.339734
     304A      3.347842   305A      3.350674   306A      3.367029
     307A      3.412115   308A      3.413853   309A      3.469963
     310A      3.501190   311A      3.514927   312A      3.520632
     313A      3.590965   314A      3.605136   315A      3.606944
     316A      3.627775   317A      3.699738   318A      3.819254
     319A      3.829933   320A      3.940214   321A      3.969568
     322A      3.977400   323A      4.010879   324A      4.195692
     325A      4.245665   326A      4.253495   327A      4.441278
     328A      4.546085   329A      4.578538   330A      4.866935
     331A      4.976298   332A      5.058671   333A      5.263870
     334A      5.315763   335A      5.632548   336A      5.691588
     337A      5.826391   338A      5.951817   339A      6.283908
     340A      6.306637   341A      6.452960   342A      6.630556
     343A     18.124926   344A     18.207419   345A     19.017876
     346A     19.342618   347A     25.286414   348A     25.374044

    Final Occupation by Irrep:
              A
    DOCC [    21 ]

  @DF-RHF Final Energy:  -262.63995165126630

   => Energetics <=

    Nuclear Repulsion Energy =            212.5517310423005597
    One-Electron Energy =                -775.4594430729962369
    Two-Electron Energy =                 300.2677603794293191
    Total Energy =                       -262.6399516512663013

Computation Completed


Properties will be evaluated at   0.000000,   0.000000,   0.000000 [a0]

Properties computed using the SCF density matrix

  Nuclear Dipole Moment: [e a0]
     X:    55.0814      Y:  -887.4694      Z:   314.1939

  Electronic Dipole Moment: [e a0]
     X:   -55.0814      Y:   887.4695      Z:  -314.1939

  Dipole Moment: [e a0]
     X:     0.0000      Y:     0.0000      Z:    -0.0000     Total:     0.0000

  Dipole Moment: [D]
     X:     0.0000      Y:     0.0000      Z:    -0.0000     Total:     0.0000


*** tstop() called on atl1-1-01-015-19-r.pace.gatech.edu at Mon Nov 29 16:11:15 2021
Module time:
	user time   =      18.00 seconds =       0.30 minutes
	system time =       0.50 seconds =       0.01 minutes
	total time  =         10 seconds =       0.17 minutes
Total time:
	user time   =      65.04 seconds =       1.08 minutes
	system time =       2.06 seconds =       0.03 minutes
	total time  =         36 seconds =       0.60 minutes
  Constructing Basis Sets for SAPT...

   => Loading Basis Set <=

    Name: (AUG-CC-PVDZ AUX)
    Role: RIFIT
    Keyword: DF_BASIS_SAPT
    atoms 1-2, 11-12  entry N          line   158 file /storage/home/hhive1/csargent30/data/miniconda3/envs/psi4/share/psi4/basis/aug-cc-pvdz-ri.gbs
    atoms 3-6, 13-16  entry H          line    30 file /storage/home/hhive1/csargent30/data/miniconda3/envs/psi4/share/psi4/basis/aug-cc-pvdz-ri.gbs
    atoms 7-10, 17-20 entry C          line   112 file /storage/home/hhive1/csargent30/data/miniconda3/envs/psi4/share/psi4/basis/aug-cc-pvdz-ri.gbs


  //>>>>>>>>>>>>>>>>>>>>>>>>>>>>>>>>>>>//
  //               SAPT0               //
  //<<<<<<<<<<<<<<<<<<<<<<<<<<<<<<<<<<<//


*** tstart() called on atl1-1-01-015-19-r.pace.gatech.edu
*** at Mon Nov 29 16:11:15 2021

        SAPT0
    Ed Hohenstein
     6 June 2009

      Orbital Information
  --------------------------
    NSO        =       348
    NMO        =       348
    NRI        =      1048
    NOCC A     =        21
    NOCC B     =        21
    FOCC A     =         6
    FOCC B     =         6
    NVIR A     =       327
    NVIR B     =       327

    Elst10,r            =     0.000072209972 [Eh]
    Exch10              =     0.000000006498 [Eh]
    Exch10 (S^2)        =     0.000000006498 [Eh]

    Iter     Energy [mEh]          dE [mEh]         Residual      Time [s]
       1      -0.00033713       0.000337126       0.201615414             0
       2      -0.00030633      -0.000030798       0.044136107             0
       3      -0.00034199       0.000035660       0.014245423             1
       4      -0.00034262       0.000000634       0.009139580             1
       5      -0.00034117      -0.000001454       0.002968113             2
       6      -0.00034112      -0.000000047       0.001006307             2
       7      -0.00034125       0.000000128       0.000382628             2
       8      -0.00034129       0.000000037       0.000083696             3
       9      -0.00034127      -0.000000019       0.000023334             3
      10      -0.00034127       0.000000001       0.000009789             3
      11      -0.00034127       0.000000002       0.000003796             4
      12      -0.00034127      -0.000000000       0.000001461             4
      13      -0.00034127      -0.000000000       0.000000343             4

    CHF Iterations converged


    Iter     Energy [mEh]          dE [mEh]         Residual      Time [s]
       1      -0.00033713       0.000337126       0.201615414             1
       2      -0.00030633      -0.000030798       0.044136106             1
       3      -0.00034199       0.000035660       0.014245423             2
       4      -0.00034262       0.000000634       0.009139580             2
       5      -0.00034117      -0.000001454       0.002968113             2
       6      -0.00034112      -0.000000047       0.001006307             3
       7      -0.00034125       0.000000128       0.000382628             3
       8      -0.00034129       0.000000037       0.000083696             3
       9      -0.00034127      -0.000000019       0.000023334             4
      10      -0.00034127       0.000000001       0.000009789             4
      11      -0.00034127       0.000000002       0.000003796             4
      12      -0.00034127      -0.000000000       0.000001461             5
      13      -0.00034127      -0.000000000       0.000000343             5

    CHF Iterations converged

    Ind20,r (A<-B)      =    -0.000000341268 [Eh]
    Ind20,r (B<-A)      =    -0.000000341268 [Eh]
    Ind20,r             =    -0.000000682536 [Eh]
    Exch-Ind20,r (A<-B) =     0.000000005130 [Eh]
    Exch-Ind20,r (B<-A) =     0.000000005130 [Eh]
    Exch-Ind20,r        =     0.000000010260 [Eh]
    Disp20              =    -0.000015555758 [Eh]
    Disp20 (SS)         =    -0.000007777879 [Eh]
    Disp20 (OS)         =    -0.000007777879 [Eh]
    Exch-Disp20         =     0.000000000607 [Eh]
    Exch-Disp20 (SS)    =     0.000000000460 [Eh]
    Exch-Disp20 (OS)    =     0.000000000147 [Eh]

    SAPT Results
  --------------------------------------------------------------------------------------------------------
    Electrostatics                  0.07220997 [mEh]       0.04531244 [kcal/mol]       0.18958725 [kJ/mol]
      Elst10,r                      0.07220997 [mEh]       0.04531244 [kcal/mol]       0.18958725 [kJ/mol]

    Exchange                        0.00000650 [mEh]       0.00000408 [kcal/mol]       0.00001706 [kJ/mol]
      Exch10                        0.00000650 [mEh]       0.00000408 [kcal/mol]       0.00001706 [kJ/mol]
      Exch10(S^2)                   0.00000650 [mEh]       0.00000408 [kcal/mol]       0.00001706 [kJ/mol]

    Induction                      -0.00079436 [mEh]      -0.00049847 [kcal/mol]      -0.00208558 [kJ/mol]
      Ind20,r                      -0.00068254 [mEh]      -0.00042830 [kcal/mol]      -0.00179200 [kJ/mol]
      Exch-Ind20,r                  0.00001026 [mEh]       0.00000644 [kcal/mol]       0.00002694 [kJ/mol]
      delta HF,r (2)               -0.00012208 [mEh]      -0.00007661 [kcal/mol]      -0.00032052 [kJ/mol]

    Dispersion                     -0.01555515 [mEh]      -0.00976100 [kcal/mol]      -0.04084004 [kJ/mol]
      Disp20                       -0.01555576 [mEh]      -0.00976139 [kcal/mol]      -0.04084164 [kJ/mol]
      Exch-Disp20                   0.00000061 [mEh]       0.00000038 [kcal/mol]       0.00000159 [kJ/mol]
      Disp20 (SS)                  -0.00777788 [mEh]      -0.00488069 [kcal/mol]      -0.02042082 [kJ/mol]
      Disp20 (OS)                  -0.00777788 [mEh]      -0.00488069 [kcal/mol]      -0.02042082 [kJ/mol]
      Exch-Disp20 (SS)              0.00000046 [mEh]       0.00000029 [kcal/mol]       0.00000121 [kJ/mol]
      Exch-Disp20 (OS)              0.00000015 [mEh]       0.00000009 [kcal/mol]       0.00000039 [kJ/mol]

  Total HF                          0.07142211 [mEh]       0.04481805 [kcal/mol]       0.18751873 [kJ/mol]
  Total SAPT0                       0.05586696 [mEh]       0.03505705 [kcal/mol]       0.14667869 [kJ/mol]

  Special recipe for scaled SAPT0 (see Manual):
    Electrostatics sSAPT0           0.07220997 [mEh]       0.04531244 [kcal/mol]       0.18958725 [kJ/mol]
    Exchange sSAPT0                 0.00000650 [mEh]       0.00000408 [kcal/mol]       0.00001706 [kJ/mol]
    Induction sSAPT0               -0.00079436 [mEh]      -0.00049847 [kcal/mol]      -0.00208558 [kJ/mol]
    Dispersion sSAPT0              -0.01555515 [mEh]      -0.00976100 [kcal/mol]      -0.04084004 [kJ/mol]
  Total sSAPT0                      0.05586696 [mEh]       0.03505705 [kcal/mol]       0.14667869 [kJ/mol]
  --------------------------------------------------------------------------------------------------------

*** tstop() called on atl1-1-01-015-19-r.pace.gatech.edu at Mon Nov 29 16:11:41 2021
Module time:
	user time   =      40.70 seconds =       0.68 minutes
	system time =       9.57 seconds =       0.16 minutes
	total time  =         26 seconds =       0.43 minutes
Total time:
	user time   =     105.98 seconds =       1.77 minutes
	system time =      11.64 seconds =       0.19 minutes
	total time  =         62 seconds =       1.03 minutes


Warning! sapt0 does not have an associated derived wavefunction.The returned wavefunction is the dimer SCF wavefunction.


    Psi4 stopped on: Monday, 29 November 2021 04:11PM
    Psi4 wall time for execution: 0:01:02.90

*** Psi4 exiting successfully. Buy a developer a beer!
