
    -----------------------------------------------------------------------
          Psi4: An Open-Source Ab Initio Electronic Structure Package
                               Psi4 1.4.1 release

                         Git: Rev {HEAD} cd00f19 


    D. G. A. Smith, L. A. Burns, A. C. Simmonett, R. M. Parrish,
    M. C. Schieber, R. Galvelis, P. Kraus, H. Kruse, R. Di Remigio,
    A. Alenaizan, A. M. James, S. Lehtola, J. P. Misiewicz, M. Scheurer,
    R. A. Shaw, J. B. Schriber, Y. Xie, Z. L. Glick, D. A. Sirianni,
    J. S. O'Brien, J. M. Waldrop, A. Kumar, E. G. Hohenstein,
    B. P. Pritchard, B. R. Brooks, H. F. Schaefer III, A. Yu. Sokolov,
    K. Patkowski, A. E. DePrince III, U. Bozkaya, R. A. King,
    F. A. Evangelista, J. M. Turney, T. D. Crawford, C. D. Sherrill,
    J. Chem. Phys. 152(18) 184108 (2020). https://doi.org/10.1063/5.0006002

                            Additional Code Authors
    E. T. Seidl, C. L. Janssen, E. F. Valeev, M. L. Leininger,
    J. F. Gonthier, R. M. Richard, H. R. McAlexander, M. Saitow, X. Wang,
    P. Verma, and M. H. Lechner

             Previous Authors, Complete List of Code Contributors,
                       and Citations for Specific Modules
    https://github.com/psi4/psi4/blob/master/codemeta.json
    https://github.com/psi4/psi4/graphs/contributors
    http://psicode.org/psi4manual/master/introduction.html#citing-psifour

    -----------------------------------------------------------------------


    Psi4 started on: Monday, 29 November 2021 04:11PM

    Process ID: 33565
    Host:       atl1-1-01-013-11-l.pace.gatech.edu
    PSIDATADIR: /storage/home/hhive1/csargent30/data/miniconda3/envs/psi4/share/psi4
    Memory:     500.0 MiB
    Threads:    2
    
  ==> Input File <==

--------------------------------------------------------------------------
# PSI4 file produced by CrystaLattE

# Generated from:               pyrazine.xyz
# Psithon input for N-mer:      2mer-0+120
# Number of atoms per monomer:  [10, 10]
# Number of replicas:           8
# COM priority:                 4.098244800705e-05
# Minimum COM separations:      15.349 
# Separation priority:          7.683144188107e-05
# Minimum monomer separations:  12.448 
# Cutoff priority:              3.266269218606e-06
# Nuclear repulsion energy:     486.09247718533334

memory 7 GB

molecule Dimer_0_120 {
  N           -1.33084758       0.98032658       0.42627037 
  N            3.95377333       0.98032658       0.42627037 
  H            3.56713674       4.35218569      -0.94230973 
  H           -0.94421098       4.35218569      -0.94230973 
  H           -0.94421098      -2.39153253       1.79485047 
  H            3.56713674      -2.39153253       1.79485047 
  C            2.62292576       2.94097974      -0.42627037 
  C            0.00000000       2.94097974      -0.42627037 
  C            0.00000000      -0.98032658       1.27881112 
  C            2.62292576      -0.98032658       1.27881112 
--
  N          -27.76452559      -4.54731131     -10.15553452 
  N          -22.47990468      -4.54731131     -10.15553452 
  H          -27.37788899      -7.91917042     -11.52411462 
  H          -27.37788899      -1.17545220      -8.78695442 
  H          -22.86654128      -7.91917042     -11.52411462 
  H          -22.86654128      -1.17545220      -8.78695442 
  C          -26.43367802      -6.50796447     -11.00807527 
  C          -26.43367802      -2.58665815      -9.30299378 
  C          -23.81075226      -6.50796447     -11.00807527 
  C          -23.81075226      -2.58665815      -9.30299378 
units = au
no_com
no_reorient
}

set {
  e_convergence 10
  d_convergence 10
  scf_type df
  mp2_type df
  cc_type df
  freeze_core true
}

energy('sapt0/aug-cc-pvdz')

--------------------------------------------------------------------------

  Memory set to   6.519 GiB by Python driver.

Scratch directory: /tmp/

Scratch directory: /tmp/

  //>>>>>>>>>>>>>>>>>>>>>>>>>>>>>>>>>>>//
  //              Dimer HF             //
  //<<<<<<<<<<<<<<<<<<<<<<<<<<<<<<<<<<<//


*** tstart() called on atl1-1-01-013-11-l.pace.gatech.edu
*** at Mon Nov 29 16:11:13 2021

   => Loading Basis Set <=

    Name: AUG-CC-PVDZ
    Role: ORBITAL
    Keyword: BASIS
    atoms 1-2, 11-12  entry N          line   218 file /storage/home/hhive1/csargent30/data/miniconda3/envs/psi4/share/psi4/basis/aug-cc-pvdz.gbs 
    atoms 3-6, 13-16  entry H          line    40 file /storage/home/hhive1/csargent30/data/miniconda3/envs/psi4/share/psi4/basis/aug-cc-pvdz.gbs 
    atoms 7-10, 17-20 entry C          line   182 file /storage/home/hhive1/csargent30/data/miniconda3/envs/psi4/share/psi4/basis/aug-cc-pvdz.gbs 


         ---------------------------------------------------------
                                   SCF
               by Justin Turney, Rob Parrish, Andy Simmonett
                          and Daniel G. A. Smith
                              RHF Reference
                        2 Threads,   6675 MiB Core
         ---------------------------------------------------------

  ==> Geometry <==

    Molecular point group: c1
    Full point group: C1

    Geometry (in Bohr), charge = 0, multiplicity = 1:

       Center              X                  Y                   Z               Mass       
    ------------   -----------------  -----------------  -----------------  -----------------
         N           -1.330847580000     0.980326580000     0.426270370000    14.003074004430
         N            3.953773330000     0.980326580000     0.426270370000    14.003074004430
         H            3.567136740000     4.352185690000    -0.942309730000     1.007825032230
         H           -0.944210980000     4.352185690000    -0.942309730000     1.007825032230
         H           -0.944210980000    -2.391532530000     1.794850470000     1.007825032230
         H            3.567136740000    -2.391532530000     1.794850470000     1.007825032230
         C            2.622925760000     2.940979740000    -0.426270370000    12.000000000000
         C            0.000000000000     2.940979740000    -0.426270370000    12.000000000000
         C            0.000000000000    -0.980326580000     1.278811120000    12.000000000000
         C            2.622925760000    -0.980326580000     1.278811120000    12.000000000000
         N          -27.764525590000    -4.547311310000   -10.155534520000    14.003074004430
         N          -22.479904680000    -4.547311310000   -10.155534520000    14.003074004430
         H          -27.377888990000    -7.919170420000   -11.524114620000     1.007825032230
         H          -27.377888990000    -1.175452200000    -8.786954420000     1.007825032230
         H          -22.866541280000    -7.919170420000   -11.524114620000     1.007825032230
         H          -22.866541280000    -1.175452200000    -8.786954420000     1.007825032230
         C          -26.433678020000    -6.507964470000   -11.008075270000    12.000000000000
         C          -26.433678020000    -2.586658150000    -9.302993780000    12.000000000000
         C          -23.810752260000    -6.507964470000   -11.008075270000    12.000000000000
         C          -23.810752260000    -2.586658150000    -9.302993780000    12.000000000000

  Running in c1 symmetry.

  Rotational constants: A =      0.09078  B =      0.00098  C =      0.00098 [cm^-1]
  Rotational constants: A =   2721.65986  B =     29.44712  C =     29.27878 [MHz]
  Nuclear repulsion =  486.092477215976032

  Charge       = 0
  Multiplicity = 1
  Electrons    = 84
  Nalpha       = 42
  Nbeta        = 42

  ==> Algorithm <==

  SCF Algorithm Type is DF.
  DIIS enabled.
  MOM disabled.
  Fractional occupation disabled.
  Guess Type is SAD.
  Energy threshold   = 1.00e-10
  Density threshold  = 1.00e-10
  Integral threshold = 1.00e-12

  ==> Primary Basis <==

  Basis Set: AUG-CC-PVDZ
    Blend: AUG-CC-PVDZ
    Number of shells: 148
    Number of basis functions: 348
    Number of Cartesian functions: 372
    Spherical Harmonics?: true
    Max angular momentum: 2

   => Loading Basis Set <=

    Name: (AUG-CC-PVDZ AUX)
    Role: JKFIT
    Keyword: DF_BASIS_SCF
    atoms 1-2, 11-12  entry N          line   212 file /storage/home/hhive1/csargent30/data/miniconda3/envs/psi4/share/psi4/basis/aug-cc-pvdz-jkfit.gbs 
    atoms 3-6, 13-16  entry H          line    70 file /storage/home/hhive1/csargent30/data/miniconda3/envs/psi4/share/psi4/basis/aug-cc-pvdz-jkfit.gbs 
    atoms 7-10, 17-20 entry C          line   154 file /storage/home/hhive1/csargent30/data/miniconda3/envs/psi4/share/psi4/basis/aug-cc-pvdz-jkfit.gbs 

  ==> Integral Setup <==

  ==> DiskDFJK: Density-Fitted J/K Matrices <==

    J tasked:                  Yes
    K tasked:                  Yes
    wK tasked:                  No
    OpenMP threads:              2
    Integrals threads:           2
    Memory [MiB]:             5006
    Algorithm:                Core
    Integral Cache:           SAVE
    Schwarz Cutoff:          1E-12
    Fitting Condition:       1E-10

   => Auxiliary Basis Set <=

  Basis Set: (AUG-CC-PVDZ AUX)
    Blend: AUG-CC-PVDZ-JKFIT
    Number of shells: 432
    Number of basis functions: 1288
    Number of Cartesian functions: 1492
    Spherical Harmonics?: true
    Max angular momentum: 3

  Minimum eigenvalue in the overlap matrix is 9.4697168326E-06.
  Reciprocal condition number of the overlap matrix is 7.3860639981E-07.
    Using symmetric orthogonalization.

  ==> Pre-Iterations <==

  SCF Guess: Superposition of Atomic Densities via on-the-fly atomic UHF (no occupation information).

   -------------------------
    Irrep   Nso     Nmo    
   -------------------------
     A        348     348 
   -------------------------
    Total     348     348
   -------------------------

  ==> Iterations <==

                           Total Energy        Delta E     RMS |[F,P]|

   @DF-RHF iter SAD:  -524.65046252032630   -5.24650e+02   0.00000e+00 
   @DF-RHF iter   1:  -525.07880639423934   -4.28344e-01   1.58372e-03 DIIS
   @DF-RHF iter   2:  -525.25756765496976   -1.78761e-01   5.80783e-04 DIIS
   @DF-RHF iter   3:  -525.27723748862911   -1.96698e-02   1.81378e-04 DIIS
   @DF-RHF iter   4:  -525.27968713517794   -2.44965e-03   5.34047e-05 DIIS
   @DF-RHF iter   5:  -525.27986636262540   -1.79227e-04   1.06855e-05 DIIS
   @DF-RHF iter   6:  -525.27987946435292   -1.31017e-05   3.46890e-06 DIIS
   @DF-RHF iter   7:  -525.27988136945680   -1.90510e-06   9.05780e-07 DIIS
   @DF-RHF iter   8:  -525.27988151719387   -1.47737e-07   1.46584e-07 DIIS
   @DF-RHF iter   9:  -525.27988152111811   -3.92424e-09   5.74365e-08 DIIS
   @DF-RHF iter  10:  -525.27988152139426   -2.76145e-10   1.98509e-08 DIIS
   @DF-RHF iter  11:  -525.27988152143917   -4.49063e-11   2.73151e-09 DIIS
   @DF-RHF iter  12:  -525.27988152144178   -2.61480e-12   8.62715e-10 DIIS
   @DF-RHF iter  13:  -525.27988152144053    1.25056e-12   3.60955e-10 DIIS
   @DF-RHF iter  14:  -525.27988152144133   -7.95808e-13   7.17335e-11 DIIS
  Energy and wave function converged.


  ==> Post-Iterations <==

    Orbital Energies [Eh]
    ---------------------

    Doubly Occupied:                                                      

       1A    -15.597852     2A    -15.597823     3A    -15.597804  
       4A    -15.597764     5A    -11.274017     6A    -11.273971  
       7A    -11.273964     8A    -11.273917     9A    -11.272755  
      10A    -11.272744    11A    -11.272704    12A    -11.272688  
      13A     -1.313122    14A     -1.313070    15A     -1.223951  
      16A     -1.223898    17A     -1.076581    18A     -1.076528  
      19A     -0.922440    20A     -0.922386    21A     -0.919061  
      22A     -0.919007    23A     -0.760414    24A     -0.760360  
      25A     -0.738181    26A     -0.738127    27A     -0.705990  
      28A     -0.705937    29A     -0.647466    30A     -0.647412  
      31A     -0.580489    32A     -0.580435    33A     -0.574145  
      34A     -0.574093    35A     -0.496886    36A     -0.496832  
      37A     -0.434062    38A     -0.434009    39A     -0.415630  
      40A     -0.415576    41A     -0.359702    42A     -0.359651  

    Virtual:                                                              

      43A      0.034591    44A      0.034845    45A      0.040893  
      46A      0.041014    47A      0.047815    48A      0.049421  
      49A      0.058551    50A      0.059169    51A      0.067335  
      52A      0.067380    53A      0.099642    54A      0.099694  
      55A      0.101162    56A      0.101219    57A      0.114427  
      58A      0.114463    59A      0.115179    60A      0.115227  
      61A      0.123888    62A      0.124128    63A      0.125563  
      64A      0.125608    65A      0.128841    66A      0.128980  
      67A      0.133106    68A      0.133147    69A      0.158248  
      70A      0.158500    71A      0.160649    72A      0.161357  
      73A      0.161514    74A      0.161812    75A      0.163114  
      76A      0.165759    77A      0.175117    78A      0.175917  
      79A      0.187145    80A      0.187198    81A      0.204126  
      82A      0.204167    83A      0.212681    84A      0.212915  
      85A      0.250749    86A      0.250792    87A      0.267979  
      88A      0.268053    89A      0.278245    90A      0.278375  
      91A      0.288044    92A      0.288094    93A      0.293393  
      94A      0.293482    95A      0.295996    96A      0.296106  
      97A      0.315033    98A      0.315141    99A      0.320681  
     100A      0.320734   101A      0.355565   102A      0.355801  
     103A      0.358127   104A      0.358178   105A      0.364883  
     106A      0.364939   107A      0.382285   108A      0.383404  
     109A      0.398984   110A      0.399295   111A      0.410097  
     112A      0.410196   113A      0.425380   114A      0.426048  
     115A      0.434141   116A      0.434192   117A      0.437364  
     118A      0.437545   119A      0.452047   120A      0.452687  
     121A      0.471631   122A      0.471840   123A      0.492360  
     124A      0.492413   125A      0.505078   126A      0.505133  
     127A      0.515136   128A      0.515181   129A      0.524758  
     130A      0.524832   131A      0.528736   132A      0.529118  
     133A      0.554798   134A      0.554852   135A      0.570753  
     136A      0.570812   137A      0.587758   138A      0.587811  
     139A      0.591612   140A      0.591917   141A      0.594022  
     142A      0.594080   143A      0.609146   144A      0.609213  
     145A      0.643721   146A      0.643818   147A      0.644540  
     148A      0.644604   149A      0.685360   150A      0.685414  
     151A      0.687981   152A      0.688033   153A      0.690136  
     154A      0.690212   155A      0.690547   156A      0.690652  
     157A      0.695045   158A      0.695103   159A      0.703997  
     160A      0.704179   161A      0.746752   162A      0.746853  
     163A      0.755035   164A      0.755089   165A      0.767155  
     166A      0.767289   167A      0.781633   168A      0.781685  
     169A      0.800016   170A      0.800105   171A      0.802909  
     172A      0.803010   173A      0.819242   174A      0.819291  
     175A      0.831297   176A      0.831346   177A      0.847650  
     178A      0.847890   179A      0.880765   180A      0.880820  
     181A      0.886628   182A      0.886688   183A      0.894906  
     184A      0.894954   185A      0.929491   186A      0.929547  
     187A      0.939528   188A      0.939920   189A      0.949525  
     190A      0.949587   191A      0.996722   192A      0.997097  
     193A      0.999136   194A      0.999198   195A      1.013243  
     196A      1.013297   197A      1.033493   198A      1.033757  
     199A      1.051416   200A      1.051469   201A      1.089607  
     202A      1.089663   203A      1.100670   204A      1.100725  
     205A      1.122401   206A      1.122494   207A      1.124267  
     208A      1.124319   209A      1.134544   210A      1.134681  
     211A      1.158870   212A      1.159123   213A      1.173787  
     214A      1.173842   215A      1.235638   216A      1.235697  
     217A      1.239023   218A      1.239084   219A      1.309859  
     220A      1.309988   221A      1.331368   222A      1.331429  
     223A      1.414503   224A      1.414557   225A      1.451750  
     226A      1.451808   227A      1.486362   228A      1.486420  
     229A      1.488292   230A      1.488365   231A      1.499398  
     232A      1.499524   233A      1.503060   234A      1.503131  
     235A      1.518450   236A      1.518549   237A      1.572909  
     238A      1.572961   239A      1.574378   240A      1.574507  
     241A      1.588002   242A      1.588172   243A      1.636197  
     244A      1.636262   245A      1.640725   246A      1.640778  
     247A      1.648014   248A      1.648963   249A      1.676774  
     250A      1.676830   251A      1.717216   252A      1.717267  
     253A      1.746820   254A      1.746872   255A      1.755326  
     256A      1.755378   257A      1.783918   258A      1.784115  
     259A      1.815949   260A      1.816001   261A      1.893544  
     262A      1.893597   263A      1.916359   264A      1.916413  
     265A      1.965050   266A      1.965104   267A      1.987898  
     268A      1.987953   269A      2.031424   270A      2.031478  
     271A      2.091770   272A      2.091823   273A      2.101195  
     274A      2.101364   275A      2.143116   276A      2.143296  
     277A      2.163568   278A      2.163644   279A      2.190708  
     280A      2.190762   281A      2.193423   282A      2.193689  
     283A      2.200600   284A      2.200657   285A      2.202631  
     286A      2.202685   287A      2.227848   288A      2.227904  
     289A      2.312962   290A      2.313063   291A      2.355442  
     292A      2.355512   293A      2.431180   294A      2.431237  
     295A      2.439200   296A      2.439254   297A      2.519598  
     298A      2.519658   299A      2.522616   300A      2.522670  
     301A      2.584990   302A      2.585052   303A      2.606491  
     304A      2.606545   305A      2.665447   306A      2.665501  
     307A      2.675635   308A      2.675688   309A      2.686612  
     310A      2.686681   311A      2.714131   312A      2.714348  
     313A      2.718795   314A      2.718890   315A      2.844239  
     316A      2.844292   317A      2.865985   318A      2.866039  
     319A      2.939419   320A      2.939474   321A      3.002077  
     322A      3.002132   323A      3.018095   324A      3.018150  
     325A      3.032411   326A      3.032465   327A      3.094358  
     328A      3.094414   329A      3.220319   330A      3.220831  
     331A      3.256201   332A      3.256255   333A      3.285100  
     334A      3.285163   335A      3.366362   336A      3.366418  
     337A      3.413587   338A      3.413642   339A      3.515139  
     340A      3.515202   341A      3.590876   342A      3.590931  
     343A      3.627971   344A      3.628071   345A      3.977422  
     346A      3.977551   347A      4.253708   348A      4.253762  

    Final Occupation by Irrep:
              A 
    DOCC [    42 ]

  @DF-RHF Final Energy:  -525.27988152144133

   => Energetics <=

    Nuclear Repulsion Energy =            486.0924772159760323
    One-Electron Energy =               -1672.9178324487704685
    Two-Electron Energy =                 661.5454737113531110
    Total Energy =                       -525.2798815214413253

Computation Completed


Properties will be evaluated at   0.000000,   0.000000,   0.000000 [a0]

Properties computed using the SCF density matrix

  Nuclear Dipole Moment: [e a0]
     X: -1000.0516      Y:  -149.8134      Z:  -408.6291

  Electronic Dipole Moment: [e a0]
     X:  1000.0521      Y:   149.8133      Z:   408.6293

  Dipole Moment: [e a0]
     X:     0.0005      Y:    -0.0001      Z:     0.0002     Total:     0.0005

  Dipole Moment: [D]
     X:     0.0012      Y:    -0.0002      Z:     0.0006     Total:     0.0014


*** tstop() called on atl1-1-01-013-11-l.pace.gatech.edu at Mon Nov 29 16:11:28 2021
Module time:
	user time   =      26.89 seconds =       0.45 minutes
	system time =       1.00 seconds =       0.02 minutes
	total time  =         15 seconds =       0.25 minutes
Total time:
	user time   =      26.89 seconds =       0.45 minutes
	system time =       1.00 seconds =       0.02 minutes
	total time  =         15 seconds =       0.25 minutes

  //>>>>>>>>>>>>>>>>>>>>>>>>>>>>>>>>>>>//
  //            Monomer A HF           //
  //<<<<<<<<<<<<<<<<<<<<<<<<<<<<<<<<<<<//


*** tstart() called on atl1-1-01-013-11-l.pace.gatech.edu
*** at Mon Nov 29 16:11:28 2021

   => Loading Basis Set <=

    Name: AUG-CC-PVDZ
    Role: ORBITAL
    Keyword: BASIS
    atoms 1-2, 11-12  entry N          line   218 file /storage/home/hhive1/csargent30/data/miniconda3/envs/psi4/share/psi4/basis/aug-cc-pvdz.gbs 
    atoms 3-6, 13-16  entry H          line    40 file /storage/home/hhive1/csargent30/data/miniconda3/envs/psi4/share/psi4/basis/aug-cc-pvdz.gbs 
    atoms 7-10, 17-20 entry C          line   182 file /storage/home/hhive1/csargent30/data/miniconda3/envs/psi4/share/psi4/basis/aug-cc-pvdz.gbs 


         ---------------------------------------------------------
                                   SCF
               by Justin Turney, Rob Parrish, Andy Simmonett
                          and Daniel G. A. Smith
                              RHF Reference
                        2 Threads,   6675 MiB Core
         ---------------------------------------------------------

  ==> Geometry <==

    Molecular point group: c1
    Full point group: C1

    Geometry (in Bohr), charge = 0, multiplicity = 1:

       Center              X                  Y                   Z               Mass       
    ------------   -----------------  -----------------  -----------------  -----------------
         N           -1.330847580000     0.980326580000     0.426270370000    14.003074004430
         N            3.953773330000     0.980326580000     0.426270370000    14.003074004430
         H            3.567136740000     4.352185690000    -0.942309730000     1.007825032230
         H           -0.944210980000     4.352185690000    -0.942309730000     1.007825032230
         H           -0.944210980000    -2.391532530000     1.794850470000     1.007825032230
         H            3.567136740000    -2.391532530000     1.794850470000     1.007825032230
         C            2.622925760000     2.940979740000    -0.426270370000    12.000000000000
         C            0.000000000000     2.940979740000    -0.426270370000    12.000000000000
         C            0.000000000000    -0.980326580000     1.278811120000    12.000000000000
         C            2.622925760000    -0.980326580000     1.278811120000    12.000000000000
      Gh(N)         -27.764525590000    -4.547311310000   -10.155534520000    14.003074004430
      Gh(N)         -22.479904680000    -4.547311310000   -10.155534520000    14.003074004430
      Gh(H)         -27.377888990000    -7.919170420000   -11.524114620000     1.007825032230
      Gh(H)         -27.377888990000    -1.175452200000    -8.786954420000     1.007825032230
      Gh(H)         -22.866541280000    -7.919170420000   -11.524114620000     1.007825032230
      Gh(H)         -22.866541280000    -1.175452200000    -8.786954420000     1.007825032230
      Gh(C)         -26.433678020000    -6.507964470000   -11.008075270000    12.000000000000
      Gh(C)         -26.433678020000    -2.586658150000    -9.302993780000    12.000000000000
      Gh(C)         -23.810752260000    -6.507964470000   -11.008075270000    12.000000000000
      Gh(C)         -23.810752260000    -2.586658150000    -9.302993780000    12.000000000000

  Running in c1 symmetry.

  Rotational constants: A =      0.09078  B =      0.00098  C =      0.00098 [cm^-1]
  Rotational constants: A =   2721.65986  B =     29.44712  C =     29.27878 [MHz]
  Nuclear repulsion =  212.551731110485349

  Charge       = 0
  Multiplicity = 1
  Electrons    = 42
  Nalpha       = 21
  Nbeta        = 21

  ==> Algorithm <==

  SCF Algorithm Type is DF.
  DIIS enabled.
  MOM disabled.
  Fractional occupation disabled.
  Guess Type is SAD.
  Energy threshold   = 1.00e-10
  Density threshold  = 1.00e-10
  Integral threshold = 1.00e-12

  ==> Primary Basis <==

  Basis Set: AUG-CC-PVDZ
    Blend: AUG-CC-PVDZ
    Number of shells: 148
    Number of basis functions: 348
    Number of Cartesian functions: 372
    Spherical Harmonics?: true
    Max angular momentum: 2

   => Loading Basis Set <=

    Name: (AUG-CC-PVDZ AUX)
    Role: JKFIT
    Keyword: DF_BASIS_SCF
    atoms 1-2, 11-12  entry N          line   212 file /storage/home/hhive1/csargent30/data/miniconda3/envs/psi4/share/psi4/basis/aug-cc-pvdz-jkfit.gbs 
    atoms 3-6, 13-16  entry H          line    70 file /storage/home/hhive1/csargent30/data/miniconda3/envs/psi4/share/psi4/basis/aug-cc-pvdz-jkfit.gbs 
    atoms 7-10, 17-20 entry C          line   154 file /storage/home/hhive1/csargent30/data/miniconda3/envs/psi4/share/psi4/basis/aug-cc-pvdz-jkfit.gbs 

  ==> Integral Setup <==

  ==> DiskDFJK: Density-Fitted J/K Matrices <==

    J tasked:                  Yes
    K tasked:                  Yes
    wK tasked:                  No
    OpenMP threads:              2
    Integrals threads:           2
    Memory [MiB]:             5006
    Algorithm:                Core
    Integral Cache:           LOAD
    Schwarz Cutoff:          1E-12
    Fitting Condition:       1E-10

   => Auxiliary Basis Set <=

  Basis Set: (AUG-CC-PVDZ AUX)
    Blend: AUG-CC-PVDZ-JKFIT
    Number of shells: 432
    Number of basis functions: 1288
    Number of Cartesian functions: 1492
    Spherical Harmonics?: true
    Max angular momentum: 3

  Minimum eigenvalue in the overlap matrix is 9.4697168326E-06.
  Reciprocal condition number of the overlap matrix is 7.3860639981E-07.
    Using symmetric orthogonalization.

  ==> Pre-Iterations <==

  SCF Guess: Superposition of Atomic Densities via on-the-fly atomic UHF (no occupation information).

   -------------------------
    Irrep   Nso     Nmo    
   -------------------------
     A        348     348 
   -------------------------
    Total     348     348
   -------------------------

  ==> Iterations <==

                           Total Energy        Delta E     RMS |[F,P]|

   @DF-RHF iter SAD:  -262.32523125875349   -2.62325e+02   0.00000e+00 
   @DF-RHF iter   1:  -262.53940798806218   -2.14177e-01   1.11985e-03 DIIS
   @DF-RHF iter   2:  -262.62878838329254   -8.93804e-02   4.10664e-04 DIIS
   @DF-RHF iter   3:  -262.63862292814969   -9.83454e-03   1.28248e-04 DIIS
   @DF-RHF iter   4:  -262.63984768138442   -1.22475e-03   3.77599e-05 DIIS
   @DF-RHF iter   5:  -262.63993728184573   -8.96005e-05   7.55558e-06 DIIS
   @DF-RHF iter   6:  -262.63994383210525   -6.55026e-06   2.45264e-06 DIIS
   @DF-RHF iter   7:  -262.63994478447864   -9.52373e-07   6.40130e-07 DIIS
   @DF-RHF iter   8:  -262.63994485836747   -7.38888e-08   9.91693e-08 DIIS
   @DF-RHF iter   9:  -262.63994486035267   -1.98520e-09   1.88228e-08 DIIS
   @DF-RHF iter  10:  -262.63994486042367   -7.09974e-11   3.19151e-09 DIIS
   @DF-RHF iter  11:  -262.63994486042611   -2.44427e-12   5.22321e-10 DIIS
   @DF-RHF iter  12:  -262.63994486042554    5.68434e-13   9.54790e-11 DIIS
  Energy and wave function converged.


  ==> Post-Iterations <==

    Orbital Energies [Eh]
    ---------------------

    Doubly Occupied:                                                      

       1A    -15.598072     2A    -15.598053     3A    -11.274239  
       4A    -11.274194     5A    -11.272975     6A    -11.272969  
       7A     -1.313347     8A     -1.224176     9A     -1.076803  
      10A     -0.922662    11A     -0.919282    12A     -0.760637  
      13A     -0.738402    14A     -0.706214    15A     -0.647687  
      16A     -0.580711    17A     -0.574369    18A     -0.497113  
      19A     -0.434288    20A     -0.415855    21A     -0.359924  

    Virtual:                                                              

      22A      0.022628    23A      0.034477    24A      0.039679  
      25A      0.040738    26A      0.041350    27A      0.048392  
      28A      0.058454    29A      0.059249    30A      0.067113  
      31A      0.079865    32A      0.085234    33A      0.099419  
      34A      0.100931    35A      0.104209    36A      0.108711  
      37A      0.109068    38A      0.114201    39A      0.114954  
      40A      0.122680    41A      0.123767    42A      0.125301  
      43A      0.125801    44A      0.128664    45A      0.131131  
      46A      0.132889    47A      0.134358    48A      0.152219  
      49A      0.153178    50A      0.158206    51A      0.159538  
      52A      0.161123    53A      0.161333    54A      0.164041  
      55A      0.175161    56A      0.177058    57A      0.186919  
      58A      0.198056    59A      0.203908    60A      0.204094  
      61A      0.206862    62A      0.212540    63A      0.222579  
      64A      0.233847    65A      0.239663    66A      0.250517  
      67A      0.255424    68A      0.267754    69A      0.271004  
      70A      0.278059    71A      0.287813    72A      0.293213  
      73A      0.295755    74A      0.302513    75A      0.314832  
      76A      0.320450    77A      0.320865    78A      0.328371  
      79A      0.331499    80A      0.344347    81A      0.355429  
      82A      0.357908    83A      0.364661    84A      0.380506  
      85A      0.382830    86A      0.385828    87A      0.398901  
      88A      0.401485    89A      0.409896    90A      0.419487  
      91A      0.425139    92A      0.425461    93A      0.433925  
      94A      0.437213    95A      0.442133    96A      0.452107  
      97A      0.460856    98A      0.461307    99A      0.471484  
     100A      0.476283   101A      0.479029   102A      0.492140  
     103A      0.504862   104A      0.508021   105A      0.514914  
     106A      0.523970   107A      0.524548   108A      0.528692  
     109A      0.535926   110A      0.554577   111A      0.558049  
     112A      0.561706   113A      0.564697   114A      0.570535  
     115A      0.582122   116A      0.587536   117A      0.591537  
     118A      0.593799   119A      0.596219   120A      0.608930  
     121A      0.615344   122A      0.620358   123A      0.636564  
     124A      0.643519   125A      0.644322   126A      0.649551  
     127A      0.651688   128A      0.679615   129A      0.685136  
     130A      0.685530   131A      0.687758   132A      0.689934  
     133A      0.690342   134A      0.694829   135A      0.703836  
     136A      0.720086   137A      0.728585   138A      0.746559  
     139A      0.746987   140A      0.754817   141A      0.766971  
     142A      0.775878   143A      0.781406   144A      0.793835  
     145A      0.799815   146A      0.802711   147A      0.811305  
     148A      0.812178   149A      0.819016   150A      0.824958  
     151A      0.831071   152A      0.847514   153A      0.848263  
     154A      0.849390   155A      0.868806   156A      0.880544  
     157A      0.886410   158A      0.888349   159A      0.894682  
     160A      0.906301   161A      0.929261   162A      0.929329  
     163A      0.939479   164A      0.947894   165A      0.949307  
     166A      0.970974   167A      0.977138   168A      0.986844  
     169A      0.996662   170A      0.998910   171A      1.013015  
     172A      1.032620   173A      1.033372   174A      1.047128  
     175A      1.051194   176A      1.076465   177A      1.089381  
     178A      1.090483   179A      1.100445   180A      1.122198  
     181A      1.124044   182A      1.130870   183A      1.134374  
     184A      1.140467   185A      1.158747   186A      1.168786  
     187A      1.170877   188A      1.173565   189A      1.192423  
     190A      1.193445   191A      1.200674   192A      1.222519  
     193A      1.235416   194A      1.238805   195A      1.251231  
     196A      1.307758   197A      1.309674   198A      1.318463  
     199A      1.326618   200A      1.329814   201A      1.331148  
     202A      1.347012   203A      1.389416   204A      1.414282  
     205A      1.448596   206A      1.451527   207A      1.455663  
     208A      1.479336   209A      1.486137   210A      1.487397  
     211A      1.488093   212A      1.499211   213A      1.502846  
     214A      1.518253   215A      1.572686   216A      1.574195  
     217A      1.587840   218A      1.635982   219A      1.640505  
     220A      1.648244   221A      1.659444   222A      1.676553  
     223A      1.698270   224A      1.716991   225A      1.746597  
     226A      1.755104   227A      1.783767   228A      1.815727  
     229A      1.893323   230A      1.916137   231A      1.964829  
     232A      1.987675   233A      2.031202   234A      2.070425  
     235A      2.091548   236A      2.101029   237A      2.102963  
     238A      2.119640   239A      2.142957   240A      2.156874  
     241A      2.159389   242A      2.163358   243A      2.190489  
     244A      2.193303   245A      2.195060   246A      2.200380  
     247A      2.202410   248A      2.227626   249A      2.234973  
     250A      2.241402   251A      2.249858   252A      2.310214  
     253A      2.312763   254A      2.319747   255A      2.355229  
     256A      2.385013   257A      2.419413   258A      2.430957  
     259A      2.435616   260A      2.438367   261A      2.438977  
     262A      2.472876   263A      2.486929   264A      2.498521  
     265A      2.519379   266A      2.522395   267A      2.525269  
     268A      2.546196   269A      2.568531   270A      2.584768  
     271A      2.592575   272A      2.606266   273A      2.626177  
     274A      2.665224   275A      2.675409   276A      2.686396  
     277A      2.713988   278A      2.717101   279A      2.718593  
     280A      2.726853   281A      2.768136   282A      2.844014  
     283A      2.865761   284A      2.904241   285A      2.939196  
     286A      2.947431   287A      2.955954   288A      2.973546  
     289A      3.001855   290A      3.017872   291A      3.032187  
     292A      3.058532   293A      3.065432   294A      3.094137  
     295A      3.114080   296A      3.220318   297A      3.245930  
     298A      3.255980   299A      3.284880   300A      3.289887  
     301A      3.322162   302A      3.337948   303A      3.340691  
     304A      3.348861   305A      3.351589   306A      3.366140  
     307A      3.412834   308A      3.413367   309A      3.470993  
     310A      3.502186   311A      3.514920   312A      3.521604  
     313A      3.590655   314A      3.604675   315A      3.605886  
     316A      3.627771   317A      3.700723   318A      3.819162  
     319A      3.830926   320A      3.941208   321A      3.969331  
     322A      3.977237   323A      4.011638   324A      4.194994  
     325A      4.242497   326A      4.253485   327A      4.442225  
     328A      4.547066   329A      4.579515   330A      4.867878  
     331A      4.976378   332A      5.058090   333A      5.261948  
     334A      5.316774   335A      5.630437   336A      5.691561  
     337A      5.827386   338A      5.952866   339A      6.284066  
     340A      6.307124   341A      6.454000   342A      6.631435  
     343A     18.125950   344A     18.208212   345A     19.017817  
     346A     19.343233   347A     25.287302   348A     25.375022  

    Final Occupation by Irrep:
              A 
    DOCC [    21 ]

  @DF-RHF Final Energy:  -262.63994486042554

   => Energetics <=

    Nuclear Repulsion Energy =            212.5517311104853491
    One-Electron Energy =                -775.4594097406029505
    Two-Electron Energy =                 300.2677337696920858
    Total Energy =                       -262.6399448604255440

Computation Completed


Properties will be evaluated at   0.000000,   0.000000,   0.000000 [a0]

Properties computed using the SCF density matrix

  Nuclear Dipole Moment: [e a0]
     X:    55.0814      Y:    41.1737      Z:    17.9034

  Electronic Dipole Moment: [e a0]
     X:   -55.0814      Y:   -41.1737      Z:   -17.9034

  Dipole Moment: [e a0]
     X:    -0.0000      Y:    -0.0000      Z:    -0.0000     Total:     0.0000

  Dipole Moment: [D]
     X:    -0.0000      Y:    -0.0000      Z:    -0.0000     Total:     0.0000


*** tstop() called on atl1-1-01-013-11-l.pace.gatech.edu at Mon Nov 29 16:11:37 2021
Module time:
	user time   =      15.84 seconds =       0.26 minutes
	system time =       0.51 seconds =       0.01 minutes
	total time  =          9 seconds =       0.15 minutes
Total time:
	user time   =      42.74 seconds =       0.71 minutes
	system time =       1.51 seconds =       0.03 minutes
	total time  =         24 seconds =       0.40 minutes

  //>>>>>>>>>>>>>>>>>>>>>>>>>>>>>>>>>>>//
  //            Monomer B HF           //
  //<<<<<<<<<<<<<<<<<<<<<<<<<<<<<<<<<<<//


*** tstart() called on atl1-1-01-013-11-l.pace.gatech.edu
*** at Mon Nov 29 16:11:37 2021

   => Loading Basis Set <=

    Name: AUG-CC-PVDZ
    Role: ORBITAL
    Keyword: BASIS
    atoms 1-2, 11-12  entry N          line   218 file /storage/home/hhive1/csargent30/data/miniconda3/envs/psi4/share/psi4/basis/aug-cc-pvdz.gbs 
    atoms 3-6, 13-16  entry H          line    40 file /storage/home/hhive1/csargent30/data/miniconda3/envs/psi4/share/psi4/basis/aug-cc-pvdz.gbs 
    atoms 7-10, 17-20 entry C          line   182 file /storage/home/hhive1/csargent30/data/miniconda3/envs/psi4/share/psi4/basis/aug-cc-pvdz.gbs 


         ---------------------------------------------------------
                                   SCF
               by Justin Turney, Rob Parrish, Andy Simmonett
                          and Daniel G. A. Smith
                              RHF Reference
                        2 Threads,   6675 MiB Core
         ---------------------------------------------------------

  ==> Geometry <==

    Molecular point group: c1
    Full point group: C1

    Geometry (in Bohr), charge = 0, multiplicity = 1:

       Center              X                  Y                   Z               Mass       
    ------------   -----------------  -----------------  -----------------  -----------------
      Gh(N)          -1.330847580000     0.980326580000     0.426270370000    14.003074004430
      Gh(N)           3.953773330000     0.980326580000     0.426270370000    14.003074004430
      Gh(H)           3.567136740000     4.352185690000    -0.942309730000     1.007825032230
      Gh(H)          -0.944210980000     4.352185690000    -0.942309730000     1.007825032230
      Gh(H)          -0.944210980000    -2.391532530000     1.794850470000     1.007825032230
      Gh(H)           3.567136740000    -2.391532530000     1.794850470000     1.007825032230
      Gh(C)           2.622925760000     2.940979740000    -0.426270370000    12.000000000000
      Gh(C)           0.000000000000     2.940979740000    -0.426270370000    12.000000000000
      Gh(C)           0.000000000000    -0.980326580000     1.278811120000    12.000000000000
      Gh(C)           2.622925760000    -0.980326580000     1.278811120000    12.000000000000
         N          -27.764525590000    -4.547311310000   -10.155534520000    14.003074004430
         N          -22.479904680000    -4.547311310000   -10.155534520000    14.003074004430
         H          -27.377888990000    -7.919170420000   -11.524114620000     1.007825032230
         H          -27.377888990000    -1.175452200000    -8.786954420000     1.007825032230
         H          -22.866541280000    -7.919170420000   -11.524114620000     1.007825032230
         H          -22.866541280000    -1.175452200000    -8.786954420000     1.007825032230
         C          -26.433678020000    -6.507964470000   -11.008075270000    12.000000000000
         C          -26.433678020000    -2.586658150000    -9.302993780000    12.000000000000
         C          -23.810752260000    -6.507964470000   -11.008075270000    12.000000000000
         C          -23.810752260000    -2.586658150000    -9.302993780000    12.000000000000

  Running in c1 symmetry.

  Rotational constants: A =      0.09078  B =      0.00098  C =      0.00098 [cm^-1]
  Rotational constants: A =   2721.65986  B =     29.44712  C =     29.27878 [MHz]
  Nuclear repulsion =  212.551731143112931

  Charge       = 0
  Multiplicity = 1
  Electrons    = 42
  Nalpha       = 21
  Nbeta        = 21

  ==> Algorithm <==

  SCF Algorithm Type is DF.
  DIIS enabled.
  MOM disabled.
  Fractional occupation disabled.
  Guess Type is SAD.
  Energy threshold   = 1.00e-10
  Density threshold  = 1.00e-10
  Integral threshold = 1.00e-12

  ==> Primary Basis <==

  Basis Set: AUG-CC-PVDZ
    Blend: AUG-CC-PVDZ
    Number of shells: 148
    Number of basis functions: 348
    Number of Cartesian functions: 372
    Spherical Harmonics?: true
    Max angular momentum: 2

   => Loading Basis Set <=

    Name: (AUG-CC-PVDZ AUX)
    Role: JKFIT
    Keyword: DF_BASIS_SCF
    atoms 1-2, 11-12  entry N          line   212 file /storage/home/hhive1/csargent30/data/miniconda3/envs/psi4/share/psi4/basis/aug-cc-pvdz-jkfit.gbs 
    atoms 3-6, 13-16  entry H          line    70 file /storage/home/hhive1/csargent30/data/miniconda3/envs/psi4/share/psi4/basis/aug-cc-pvdz-jkfit.gbs 
    atoms 7-10, 17-20 entry C          line   154 file /storage/home/hhive1/csargent30/data/miniconda3/envs/psi4/share/psi4/basis/aug-cc-pvdz-jkfit.gbs 

  ==> Integral Setup <==

  ==> DiskDFJK: Density-Fitted J/K Matrices <==

    J tasked:                  Yes
    K tasked:                  Yes
    wK tasked:                  No
    OpenMP threads:              2
    Integrals threads:           2
    Memory [MiB]:             5006
    Algorithm:                Core
    Integral Cache:           LOAD
    Schwarz Cutoff:          1E-12
    Fitting Condition:       1E-10

   => Auxiliary Basis Set <=

  Basis Set: (AUG-CC-PVDZ AUX)
    Blend: AUG-CC-PVDZ-JKFIT
    Number of shells: 432
    Number of basis functions: 1288
    Number of Cartesian functions: 1492
    Spherical Harmonics?: true
    Max angular momentum: 3

  Minimum eigenvalue in the overlap matrix is 9.4697168326E-06.
  Reciprocal condition number of the overlap matrix is 7.3860639981E-07.
    Using symmetric orthogonalization.

  ==> Pre-Iterations <==

  SCF Guess: Superposition of Atomic Densities via on-the-fly atomic UHF (no occupation information).

   -------------------------
    Irrep   Nso     Nmo    
   -------------------------
     A        348     348 
   -------------------------
    Total     348     348
   -------------------------

  ==> Iterations <==

                           Total Energy        Delta E     RMS |[F,P]|

   @DF-RHF iter SAD:  -262.32523126067827   -2.62325e+02   0.00000e+00 
   @DF-RHF iter   1:  -262.53940798023268   -2.14177e-01   1.11985e-03 DIIS
   @DF-RHF iter   2:  -262.62878837478047   -8.93804e-02   4.10664e-04 DIIS
   @DF-RHF iter   3:  -262.63862291948408   -9.83454e-03   1.28248e-04 DIIS
   @DF-RHF iter   4:  -262.63984767272001   -1.22475e-03   3.77599e-05 DIIS
   @DF-RHF iter   5:  -262.63993727318109   -8.96005e-05   7.55558e-06 DIIS
   @DF-RHF iter   6:  -262.63994382344083   -6.55026e-06   2.45264e-06 DIIS
   @DF-RHF iter   7:  -262.63994477581264   -9.52372e-07   6.40130e-07 DIIS
   @DF-RHF iter   8:  -262.63994484970124   -7.38886e-08   9.91693e-08 DIIS
   @DF-RHF iter   9:  -262.63994485168729   -1.98605e-09   1.88228e-08 DIIS
   @DF-RHF iter  10:  -262.63994485175789   -7.05995e-11   3.19151e-09 DIIS
   @DF-RHF iter  11:  -262.63994485175999   -2.10321e-12   5.22319e-10 DIIS
   @DF-RHF iter  12:  -262.63994485175999    0.00000e+00   9.54557e-11 DIIS
  Energy and wave function converged.


  ==> Post-Iterations <==

    Orbital Energies [Eh]
    ---------------------

    Doubly Occupied:                                                      

       1A    -15.598072     2A    -15.598053     3A    -11.274239  
       4A    -11.274194     5A    -11.272975     6A    -11.272969  
       7A     -1.313347     8A     -1.224176     9A     -1.076803  
      10A     -0.922662    11A     -0.919282    12A     -0.760637  
      13A     -0.738402    14A     -0.706214    15A     -0.647687  
      16A     -0.580711    17A     -0.574369    18A     -0.497113  
      19A     -0.434288    20A     -0.415855    21A     -0.359924  

    Virtual:                                                              

      22A      0.022572    23A      0.034484    24A      0.039624  
      25A      0.040619    26A      0.041363    27A      0.048442  
      28A      0.058433    29A      0.059148    30A      0.067113  
      31A      0.079834    32A      0.085178    33A      0.099419  
      34A      0.100944    35A      0.104121    36A      0.108671  
      37A      0.108996    38A      0.114201    39A      0.114952  
      40A      0.122642    41A      0.123777    42A      0.125323  
      43A      0.125722    44A      0.128662    45A      0.131098  
      46A      0.132889    47A      0.134283    48A      0.152218  
      49A      0.152994    50A      0.158240    51A      0.159492  
      52A      0.161108    53A      0.161391    54A      0.164033  
      55A      0.175168    56A      0.176949    57A      0.186917  
      58A      0.197994    59A      0.203908    60A      0.204048  
      61A      0.206815    62A      0.212539    63A      0.222529  
      64A      0.233786    65A      0.239596    66A      0.250517  
      67A      0.255381    68A      0.267757    69A      0.270924  
      70A      0.278064    71A      0.287813    72A      0.293207  
      73A      0.295760    74A      0.302459    75A      0.314833  
      76A      0.320456    77A      0.320788    78A      0.328302  
      79A      0.331460    80A      0.344274    81A      0.355434  
      82A      0.357908    83A      0.364661    84A      0.380455  
      85A      0.382819    86A      0.385784    87A      0.398903  
      88A      0.401423    89A      0.409899    90A      0.419413  
      91A      0.425091    92A      0.425499    93A      0.433925  
      94A      0.437221    95A      0.442081    96A      0.452101  
      97A      0.460805    98A      0.461257    99A      0.471484  
     100A      0.476232   101A      0.478964   102A      0.492140  
     103A      0.504862   104A      0.507961   105A      0.514914  
     106A      0.523902   107A      0.524560   108A      0.528680  
     109A      0.535874   110A      0.554577   111A      0.557992  
     112A      0.561656   113A      0.564642   114A      0.570535  
     115A      0.582050   116A      0.587535   117A      0.591509  
     118A      0.593800   119A      0.596151   120A      0.608930  
     121A      0.615295   122A      0.620312   123A      0.636515  
     124A      0.643518   125A      0.644323   126A      0.649499  
     127A      0.651637   128A      0.679556   129A      0.685136  
     130A      0.685465   131A      0.687759   132A      0.689932  
     133A      0.690347   134A      0.694829   135A      0.703834  
     136A      0.720028   137A      0.728538   138A      0.746511  
     139A      0.746998   140A      0.754817   141A      0.766966  
     142A      0.775829   143A      0.781406   144A      0.793777  
     145A      0.799813   146A      0.802706   147A      0.811281  
     148A      0.812120   149A      0.819016   150A      0.824902  
     151A      0.831071   152A      0.847521   153A      0.848214  
     154A      0.849338   155A      0.868753   156A      0.880544  
     157A      0.886411   158A      0.888296   159A      0.894682  
     160A      0.906252   161A      0.929254   162A      0.929276  
     163A      0.939470   164A      0.947842   165A      0.949309  
     166A      0.970926   167A      0.977087   168A      0.986788  
     169A      0.996657   170A      0.998908   171A      1.013015  
     172A      1.032560   173A      1.033381   174A      1.047079  
     175A      1.051195   176A      1.076410   177A      1.089381  
     178A      1.090430   179A      1.100445   180A      1.122200  
     181A      1.124044   182A      1.130813   183A      1.134363  
     184A      1.140419   185A      1.158744   186A      1.168737  
     187A      1.170824   188A      1.173565   189A      1.192379  
     190A      1.193392   191A      1.200627   192A      1.222462  
     193A      1.235417   194A      1.238805   195A      1.251180  
     196A      1.307708   197A      1.309674   198A      1.318416  
     199A      1.326562   200A      1.329764   201A      1.331148  
     202A      1.346962   203A      1.389359   204A      1.414282  
     205A      1.448541   206A      1.451527   207A      1.455610  
     208A      1.479283   209A      1.486137   210A      1.487353  
     211A      1.488080   212A      1.499215   213A      1.502847  
     214A      1.518255   215A      1.572686   216A      1.574194  
     217A      1.587838   218A      1.635982   219A      1.640505  
     220A      1.648230   221A      1.659390   222A      1.676553  
     223A      1.698218   224A      1.716991   225A      1.746597  
     226A      1.755104   227A      1.783764   228A      1.815727  
     229A      1.893323   230A      1.916137   231A      1.964829  
     232A      1.987675   233A      2.031202   234A      2.070374  
     235A      2.091549   236A      2.101032   237A      2.102914  
     238A      2.119591   239A      2.142955   240A      2.156823  
     241A      2.159338   242A      2.163356   243A      2.190489  
     244A      2.193307   245A      2.195009   246A      2.200380  
     247A      2.202411   248A      2.227626   249A      2.234925  
     250A      2.241352   251A      2.249807   252A      2.310161  
     253A      2.312761   254A      2.319703   255A      2.355229  
     256A      2.384978   257A      2.419358   258A      2.430957  
     259A      2.435563   260A      2.438314   261A      2.438977  
     262A      2.472826   263A      2.486873   264A      2.498467  
     265A      2.519380   266A      2.522395   267A      2.525216  
     268A      2.546145   269A      2.568481   270A      2.584767  
     271A      2.592520   272A      2.606266   273A      2.626124  
     274A      2.665224   275A      2.675409   276A      2.686396  
     277A      2.713989   278A      2.717046   279A      2.718594  
     280A      2.726803   281A      2.768087   282A      2.844014  
     283A      2.865761   284A      2.904191   285A      2.939196  
     286A      2.947379   287A      2.955903   288A      2.973497  
     289A      3.001856   290A      3.017872   291A      3.032187  
     292A      3.058482   293A      3.065377   294A      3.094137  
     295A      3.114018   296A      3.220333   297A      3.245879  
     298A      3.255980   299A      3.284881   300A      3.289836  
     301A      3.322112   302A      3.337897   303A      3.340639  
     304A      3.348811   305A      3.351537   306A      3.366140  
     307A      3.412782   308A      3.413367   309A      3.470937  
     310A      3.502137   311A      3.514921   312A      3.521552  
     313A      3.590655   314A      3.604624   315A      3.605838  
     316A      3.627770   317A      3.700673   318A      3.819108  
     319A      3.830875   320A      3.941157   321A      3.969280  
     322A      3.977240   323A      4.011587   324A      4.194943  
     325A      4.242435   326A      4.253485   327A      4.442174  
     328A      4.547016   329A      4.579465   330A      4.867828  
     331A      4.976328   332A      5.058040   333A      5.261896  
     334A      5.316724   335A      5.630383   336A      5.691510  
     337A      5.827336   338A      5.952814   339A      6.284014  
     340A      6.307072   341A      6.453948   342A      6.631383  
     343A     18.125900   344A     18.208162   345A     19.017759  
     346A     19.343184   347A     25.287251   348A     25.374970  

    Final Occupation by Irrep:
              A 
    DOCC [    21 ]

  @DF-RHF Final Energy:  -262.63994485175999

   => Energetics <=

    Nuclear Repulsion Energy =            212.5517311431129315
    One-Electron Energy =                -775.4594097334914977
    Two-Electron Energy =                 300.2677337386185172
    Total Energy =                       -262.6399448517599922

Computation Completed


Properties will be evaluated at   0.000000,   0.000000,   0.000000 [a0]

Properties computed using the SCF density matrix

  Nuclear Dipole Moment: [e a0]
     X: -1055.1330      Y:  -190.9871      Z:  -426.5324

  Electronic Dipole Moment: [e a0]
     X:  1055.1330      Y:   190.9871      Z:   426.5324

  Dipole Moment: [e a0]
     X:     0.0000      Y:    -0.0000      Z:     0.0000     Total:     0.0000

  Dipole Moment: [D]
     X:     0.0000      Y:    -0.0000      Z:     0.0000     Total:     0.0000


*** tstop() called on atl1-1-01-013-11-l.pace.gatech.edu at Mon Nov 29 16:11:47 2021
Module time:
	user time   =      17.42 seconds =       0.29 minutes
	system time =       0.49 seconds =       0.01 minutes
	total time  =         10 seconds =       0.17 minutes
Total time:
	user time   =      60.17 seconds =       1.00 minutes
	system time =       2.00 seconds =       0.03 minutes
	total time  =         34 seconds =       0.57 minutes
  Constructing Basis Sets for SAPT...

   => Loading Basis Set <=

    Name: (AUG-CC-PVDZ AUX)
    Role: RIFIT
    Keyword: DF_BASIS_SAPT
    atoms 1-2, 11-12  entry N          line   158 file /storage/home/hhive1/csargent30/data/miniconda3/envs/psi4/share/psi4/basis/aug-cc-pvdz-ri.gbs 
    atoms 3-6, 13-16  entry H          line    30 file /storage/home/hhive1/csargent30/data/miniconda3/envs/psi4/share/psi4/basis/aug-cc-pvdz-ri.gbs 
    atoms 7-10, 17-20 entry C          line   112 file /storage/home/hhive1/csargent30/data/miniconda3/envs/psi4/share/psi4/basis/aug-cc-pvdz-ri.gbs 


  //>>>>>>>>>>>>>>>>>>>>>>>>>>>>>>>>>>>//
  //               SAPT0               //
  //<<<<<<<<<<<<<<<<<<<<<<<<<<<<<<<<<<<//


*** tstart() called on atl1-1-01-013-11-l.pace.gatech.edu
*** at Mon Nov 29 16:11:47 2021

        SAPT0  
    Ed Hohenstein
     6 June 2009

      Orbital Information
  --------------------------
    NSO        =       348
    NMO        =       348
    NRI        =      1048
    NOCC A     =        21
    NOCC B     =        21
    FOCC A     =         6
    FOCC B     =         6
    NVIR A     =       327
    NVIR B     =       327

    Elst10,r            =     0.000008185353 [Eh]
    Exch10              =     0.000000000018 [Eh]
    Exch10 (S^2)        =     0.000000000018 [Eh]

    Iter     Energy [mEh]          dE [mEh]         Residual      Time [s]
       1      -0.00002070       0.000020703       0.048858964             0
       2      -0.00001856      -0.000002146       0.011998511             1
       3      -0.00001975       0.000001195       0.005604029             1
       4      -0.00002032       0.000000571       0.001243344             1
       5      -0.00002028      -0.000000048       0.000755743             2
       6      -0.00002025      -0.000000030       0.000296745             2
       7      -0.00002025       0.000000008       0.000115311             2
       8      -0.00002026       0.000000003       0.000037358             3
       9      -0.00002026      -0.000000000       0.000012114             3
      10      -0.00002026      -0.000000000       0.000003583             4
      11      -0.00002026       0.000000000       0.000001559             4
      12      -0.00002026       0.000000000       0.000000509             4

    CHF Iterations converged


    Iter     Energy [mEh]          dE [mEh]         Residual      Time [s]
       1      -0.00002819       0.000028190       0.062171473             1
       2      -0.00002523      -0.000002960       0.014160053             1
       3      -0.00002783       0.000002597       0.005442231             2
       4      -0.00002818       0.000000356       0.001864467             2
       5      -0.00002812      -0.000000058       0.001054559             2
       6      -0.00002808      -0.000000049       0.000413164             3
       7      -0.00002808       0.000000009       0.000171735             3
       8      -0.00002809       0.000000007       0.000051957             3
       9      -0.00002809      -0.000000001       0.000016098             4
      10      -0.00002809      -0.000000001       0.000004811             4
      11      -0.00002809       0.000000000       0.000002079             4
      12      -0.00002809       0.000000000       0.000000738             5

    CHF Iterations converged

    Ind20,r (A<-B)      =    -0.000000020256 [Eh]
    Ind20,r (B<-A)      =    -0.000000028089 [Eh]
    Ind20,r             =    -0.000000048345 [Eh]
    Exch-Ind20,r (A<-B) =     0.000000000023 [Eh]
    Exch-Ind20,r (B<-A) =     0.000000000004 [Eh]
    Exch-Ind20,r        =     0.000000000027 [Eh]
    Disp20              =    -0.000003246156 [Eh]
    Disp20 (SS)         =    -0.000001623078 [Eh]
    Disp20 (OS)         =    -0.000001623078 [Eh]
    Exch-Disp20         =     0.000000000001 [Eh]
    Exch-Disp20 (SS)    =     0.000000000001 [Eh]
    Exch-Disp20 (OS)    =     0.000000000000 [Eh]

    SAPT Results 
  --------------------------------------------------------------------------------------------------------
    Electrostatics                  0.00818535 [mEh]       0.00513639 [kcal/mol]       0.02149064 [kJ/mol]
      Elst10,r                      0.00818535 [mEh]       0.00513639 [kcal/mol]       0.02149064 [kJ/mol]

    Exchange                        0.00000002 [mEh]       0.00000001 [kcal/mol]       0.00000005 [kJ/mol]
      Exch10                        0.00000002 [mEh]       0.00000001 [kcal/mol]       0.00000005 [kJ/mol]
      Exch10(S^2)                   0.00000002 [mEh]       0.00000001 [kcal/mol]       0.00000005 [kJ/mol]

    Induction                       0.00000537 [mEh]       0.00000337 [kcal/mol]       0.00001411 [kJ/mol]
      Ind20,r                      -0.00004835 [mEh]      -0.00003034 [kcal/mol]      -0.00012693 [kJ/mol]
      Exch-Ind20,r                  0.00000003 [mEh]       0.00000002 [kcal/mol]       0.00000007 [kJ/mol]
      delta HF,r (2)                0.00005369 [mEh]       0.00003369 [kcal/mol]       0.00014097 [kJ/mol]

    Dispersion                     -0.00324615 [mEh]      -0.00203699 [kcal/mol]      -0.00852278 [kJ/mol]
      Disp20                       -0.00324616 [mEh]      -0.00203699 [kcal/mol]      -0.00852278 [kJ/mol]
      Exch-Disp20                   0.00000000 [mEh]       0.00000000 [kcal/mol]       0.00000000 [kJ/mol]
      Disp20 (SS)                  -0.00162308 [mEh]      -0.00101850 [kcal/mol]      -0.00426139 [kJ/mol]
      Disp20 (OS)                  -0.00162308 [mEh]      -0.00101850 [kcal/mol]      -0.00426139 [kJ/mol]
      Exch-Disp20 (SS)              0.00000000 [mEh]       0.00000000 [kcal/mol]       0.00000000 [kJ/mol]
      Exch-Disp20 (OS)              0.00000000 [mEh]       0.00000000 [kcal/mol]       0.00000000 [kJ/mol]

  Total HF                          0.00819074 [mEh]       0.00513977 [kcal/mol]       0.02150480 [kJ/mol]
  Total SAPT0                       0.00494459 [mEh]       0.00310278 [kcal/mol]       0.01298202 [kJ/mol]

  Special recipe for scaled SAPT0 (see Manual):
    Electrostatics sSAPT0           0.00818535 [mEh]       0.00513639 [kcal/mol]       0.02149064 [kJ/mol]
    Exchange sSAPT0                 0.00000002 [mEh]       0.00000001 [kcal/mol]       0.00000005 [kJ/mol]
    Induction sSAPT0                0.00000537 [mEh]       0.00000337 [kcal/mol]       0.00001411 [kJ/mol]
    Dispersion sSAPT0              -0.00324615 [mEh]      -0.00203699 [kcal/mol]      -0.00852278 [kJ/mol]
  Total sSAPT0                      0.00494459 [mEh]       0.00310278 [kcal/mol]       0.01298202 [kJ/mol]
  --------------------------------------------------------------------------------------------------------

*** tstop() called on atl1-1-01-013-11-l.pace.gatech.edu at Mon Nov 29 16:12:13 2021
Module time:
	user time   =      40.19 seconds =       0.67 minutes
	system time =       9.54 seconds =       0.16 minutes
	total time  =         26 seconds =       0.43 minutes
Total time:
	user time   =     100.62 seconds =       1.68 minutes
	system time =      11.55 seconds =       0.19 minutes
	total time  =         60 seconds =       1.00 minutes


Warning! sapt0 does not have an associated derived wavefunction.The returned wavefunction is the dimer SCF wavefunction.


    Psi4 stopped on: Monday, 29 November 2021 04:12PM
    Psi4 wall time for execution: 0:01:00.27

*** Psi4 exiting successfully. Buy a developer a beer!
