
    -----------------------------------------------------------------------
          Psi4: An Open-Source Ab Initio Electronic Structure Package
                               Psi4 1.4.1 release

                         Git: Rev {HEAD} cd00f19


    D. G. A. Smith, L. A. Burns, A. C. Simmonett, R. M. Parrish,
    M. C. Schieber, R. Galvelis, P. Kraus, H. Kruse, R. Di Remigio,
    A. Alenaizan, A. M. James, S. Lehtola, J. P. Misiewicz, M. Scheurer,
    R. A. Shaw, J. B. Schriber, Y. Xie, Z. L. Glick, D. A. Sirianni,
    J. S. O'Brien, J. M. Waldrop, A. Kumar, E. G. Hohenstein,
    B. P. Pritchard, B. R. Brooks, H. F. Schaefer III, A. Yu. Sokolov,
    K. Patkowski, A. E. DePrince III, U. Bozkaya, R. A. King,
    F. A. Evangelista, J. M. Turney, T. D. Crawford, C. D. Sherrill,
    J. Chem. Phys. 152(18) 184108 (2020). https://doi.org/10.1063/5.0006002

                            Additional Code Authors
    E. T. Seidl, C. L. Janssen, E. F. Valeev, M. L. Leininger,
    J. F. Gonthier, R. M. Richard, H. R. McAlexander, M. Saitow, X. Wang,
    P. Verma, and M. H. Lechner

             Previous Authors, Complete List of Code Contributors,
                       and Citations for Specific Modules
    https://github.com/psi4/psi4/blob/master/codemeta.json
    https://github.com/psi4/psi4/graphs/contributors
    http://psicode.org/psi4manual/master/introduction.html#citing-psifour

    -----------------------------------------------------------------------


    Psi4 started on: Monday, 29 November 2021 04:11PM

    Process ID: 23567
    Host:       atl1-1-01-013-11-r.pace.gatech.edu
    PSIDATADIR: /storage/home/hhive1/csargent30/data/miniconda3/envs/psi4/share/psi4
    Memory:     500.0 MiB
    Threads:    2

  ==> Input File <==

--------------------------------------------------------------------------
# PSI4 file produced by CrystaLattE

# Generated from:               pyrazine.xyz
# Psithon input for N-mer:      2mer-0+152
# Number of atoms per monomer:  [10, 10]
# Number of replicas:           4
# COM priority:                 3.169438280376e-05
# Minimum COM separations:      16.721
# Separation priority:          8.027877764077e-05
# Minimum monomer separations:  12.267
# Cutoff priority:              3.463121018068e-06
# Nuclear repulsion energy:     481.13601627620415

memory 7 GB

molecule Dimer_0_152 {
  N           -1.33084758       0.98032658       0.42627037
  N            3.95377333       0.98032658       0.42627037
  H            3.56713674       4.35218569      -0.94230973
  H           -0.94421098       4.35218569      -0.94230973
  H           -0.94421098      -2.39153253       1.79485047
  H            3.56713674      -2.39153253       1.79485047
  C            2.62292576       2.94097974      -0.42627037
  C            0.00000000       2.94097974      -0.42627037
  C            0.00000000      -0.98032658       1.27881112
  C            2.62292576      -0.98032658       1.27881112
--
  N          -18.95329959     -21.13022498      14.53534357
  N          -13.66867868     -21.13022498      14.53534357
  H          -14.05531527     -17.75836587      13.16676347
  H          -18.56666299     -17.75836587      13.16676347
  H          -18.56666299     -24.50208409      15.90392367
  H          -14.05531527     -24.50208409      15.90392367
  C          -14.99952625     -19.16957182      13.68280282
  C          -17.62245201     -19.16957182      13.68280282
  C          -17.62245201     -23.09087814      15.38788432
  C          -14.99952625     -23.09087814      15.38788432
units = au
no_com
no_reorient
}

set {
  e_convergence 10
  d_convergence 10
  scf_type df
  mp2_type df
  cc_type df
  freeze_core true
}

energy('sapt0/aug-cc-pvdz')

--------------------------------------------------------------------------

  Memory set to   6.519 GiB by Python driver.

Scratch directory: /tmp/

Scratch directory: /tmp/

  //>>>>>>>>>>>>>>>>>>>>>>>>>>>>>>>>>>>//
  //              Dimer HF             //
  //<<<<<<<<<<<<<<<<<<<<<<<<<<<<<<<<<<<//


*** tstart() called on atl1-1-01-013-11-r.pace.gatech.edu
*** at Mon Nov 29 16:11:16 2021

   => Loading Basis Set <=

    Name: AUG-CC-PVDZ
    Role: ORBITAL
    Keyword: BASIS
    atoms 1-2, 11-12  entry N          line   218 file /storage/home/hhive1/csargent30/data/miniconda3/envs/psi4/share/psi4/basis/aug-cc-pvdz.gbs
    atoms 3-6, 13-16  entry H          line    40 file /storage/home/hhive1/csargent30/data/miniconda3/envs/psi4/share/psi4/basis/aug-cc-pvdz.gbs
    atoms 7-10, 17-20 entry C          line   182 file /storage/home/hhive1/csargent30/data/miniconda3/envs/psi4/share/psi4/basis/aug-cc-pvdz.gbs


         ---------------------------------------------------------
                                   SCF
               by Justin Turney, Rob Parrish, Andy Simmonett
                          and Daniel G. A. Smith
                              RHF Reference
                        2 Threads,   6675 MiB Core
         ---------------------------------------------------------

  ==> Geometry <==

    Molecular point group: c1
    Full point group: C1

    Geometry (in Bohr), charge = 0, multiplicity = 1:

       Center              X                  Y                   Z               Mass
    ------------   -----------------  -----------------  -----------------  -----------------
         N           -1.330847580000     0.980326580000     0.426270370000    14.003074004430
         N            3.953773330000     0.980326580000     0.426270370000    14.003074004430
         H            3.567136740000     4.352185690000    -0.942309730000     1.007825032230
         H           -0.944210980000     4.352185690000    -0.942309730000     1.007825032230
         H           -0.944210980000    -2.391532530000     1.794850470000     1.007825032230
         H            3.567136740000    -2.391532530000     1.794850470000     1.007825032230
         C            2.622925760000     2.940979740000    -0.426270370000    12.000000000000
         C            0.000000000000     2.940979740000    -0.426270370000    12.000000000000
         C            0.000000000000    -0.980326580000     1.278811120000    12.000000000000
         C            2.622925760000    -0.980326580000     1.278811120000    12.000000000000
         N          -18.953299590000   -21.130224980000    14.535343570000    14.003074004430
         N          -13.668678680000   -21.130224980000    14.535343570000    14.003074004430
         H          -14.055315270000   -17.758365870000    13.166763470000     1.007825032230
         H          -18.566662990000   -17.758365870000    13.166763470000     1.007825032230
         H          -18.566662990000   -24.502084090000    15.903923670000     1.007825032230
         H          -14.055315270000   -24.502084090000    15.903923670000     1.007825032230
         C          -14.999526250000   -19.169571820000    13.682802820000    12.000000000000
         C          -17.622452010000   -19.169571820000    13.682802820000    12.000000000000
         C          -17.622452010000   -23.090878140000    15.387884320000    12.000000000000
         C          -14.999526250000   -23.090878140000    15.387884320000    12.000000000000

  Running in c1 symmetry.

  Rotational constants: A =      0.08430  B =      0.00081  C =      0.00080 [cm^-1]
  Rotational constants: A =   2527.23444  B =     24.16514  C =     23.99125 [MHz]
  Nuclear repulsion =  481.136016203497945

  Charge       = 0
  Multiplicity = 1
  Electrons    = 84
  Nalpha       = 42
  Nbeta        = 42

  ==> Algorithm <==

  SCF Algorithm Type is DF.
  DIIS enabled.
  MOM disabled.
  Fractional occupation disabled.
  Guess Type is SAD.
  Energy threshold   = 1.00e-10
  Density threshold  = 1.00e-10
  Integral threshold = 1.00e-12

  ==> Primary Basis <==

  Basis Set: AUG-CC-PVDZ
    Blend: AUG-CC-PVDZ
    Number of shells: 148
    Number of basis functions: 348
    Number of Cartesian functions: 372
    Spherical Harmonics?: true
    Max angular momentum: 2

   => Loading Basis Set <=

    Name: (AUG-CC-PVDZ AUX)
    Role: JKFIT
    Keyword: DF_BASIS_SCF
    atoms 1-2, 11-12  entry N          line   212 file /storage/home/hhive1/csargent30/data/miniconda3/envs/psi4/share/psi4/basis/aug-cc-pvdz-jkfit.gbs
    atoms 3-6, 13-16  entry H          line    70 file /storage/home/hhive1/csargent30/data/miniconda3/envs/psi4/share/psi4/basis/aug-cc-pvdz-jkfit.gbs
    atoms 7-10, 17-20 entry C          line   154 file /storage/home/hhive1/csargent30/data/miniconda3/envs/psi4/share/psi4/basis/aug-cc-pvdz-jkfit.gbs

  ==> Integral Setup <==

  ==> DiskDFJK: Density-Fitted J/K Matrices <==

    J tasked:                  Yes
    K tasked:                  Yes
    wK tasked:                  No
    OpenMP threads:              2
    Integrals threads:           2
    Memory [MiB]:             5006
    Algorithm:                Core
    Integral Cache:           SAVE
    Schwarz Cutoff:          1E-12
    Fitting Condition:       1E-10

   => Auxiliary Basis Set <=

  Basis Set: (AUG-CC-PVDZ AUX)
    Blend: AUG-CC-PVDZ-JKFIT
    Number of shells: 432
    Number of basis functions: 1288
    Number of Cartesian functions: 1492
    Spherical Harmonics?: true
    Max angular momentum: 3

  Minimum eigenvalue in the overlap matrix is 9.3919254805E-06.
  Reciprocal condition number of the overlap matrix is 7.3253890411E-07.
    Using symmetric orthogonalization.

  ==> Pre-Iterations <==

  SCF Guess: Superposition of Atomic Densities via on-the-fly atomic UHF (no occupation information).

   -------------------------
    Irrep   Nso     Nmo
   -------------------------
     A        348     348
   -------------------------
    Total     348     348
   -------------------------

  ==> Iterations <==

                           Total Energy        Delta E     RMS |[F,P]|

   @DF-RHF iter SAD:  -524.65046251166814   -5.24650e+02   0.00000e+00
   @DF-RHF iter   1:  -525.07882330066354   -4.28361e-01   1.58371e-03 DIIS
   @DF-RHF iter   2:  -525.25758381252626   -1.78761e-01   5.80757e-04 DIIS
   @DF-RHF iter   3:  -525.27725252035566   -1.96687e-02   1.81362e-04 DIIS
   @DF-RHF iter   4:  -525.27970190276881   -2.44938e-03   5.33965e-05 DIIS
   @DF-RHF iter   5:  -525.27988107604210   -1.79173e-04   1.06852e-05 DIIS
   @DF-RHF iter   6:  -525.27989417551385   -1.30995e-05   3.46840e-06 DIIS
   @DF-RHF iter   7:  -525.27989607990821   -1.90439e-06   9.05612e-07 DIIS
   @DF-RHF iter   8:  -525.27989622757718   -1.47669e-07   1.46900e-07 DIIS
   @DF-RHF iter   9:  -525.27989623149722   -3.92004e-09   5.86204e-08 DIIS
   @DF-RHF iter  10:  -525.27989623178325   -2.86036e-10   1.97230e-08 DIIS
   @DF-RHF iter  11:  -525.27989623182793   -4.46789e-11   2.64934e-09 DIIS
   @DF-RHF iter  12:  -525.27989623182884   -9.09495e-13   4.56889e-10 DIIS
   @DF-RHF iter  13:  -525.27989623182896   -1.13687e-13   1.09189e-10 DIIS
   @DF-RHF iter  14:  -525.27989623182953   -5.68434e-13   4.26129e-11 DIIS
  Energy and wave function converged.


  ==> Post-Iterations <==

    Orbital Energies [Eh]
    ---------------------

    Doubly Occupied:

       1A    -15.598208     2A    -15.598208     3A    -15.598174
       4A    -15.598174     5A    -11.274365     6A    -11.274365
       7A    -11.274320     8A    -11.274320     9A    -11.273101
      10A    -11.273101    11A    -11.273096    12A    -11.273096
      13A     -1.313474    14A     -1.313474    15A     -1.224304
      16A     -1.224304    17A     -1.076929    18A     -1.076929
      19A     -0.922790    20A     -0.922790    21A     -0.919408
      22A     -0.919408    23A     -0.760764    24A     -0.760764
      25A     -0.738527    26A     -0.738527    27A     -0.706341
      28A     -0.706341    29A     -0.647813    30A     -0.647813
      31A     -0.580837    32A     -0.580837    33A     -0.574496
      34A     -0.574496    35A     -0.497243    36A     -0.497243
      37A     -0.434417    38A     -0.434417    39A     -0.415985
      40A     -0.415985    41A     -0.360049    42A     -0.360049

    Virtual:

      43A      0.034186    44A      0.034521    45A      0.040248
      46A      0.040913    47A      0.047489    48A      0.048896
      49A      0.057457    50A      0.059578    51A      0.066991
      52A      0.066992    53A      0.099293    54A      0.099293
      55A      0.100818    56A      0.100839    57A      0.114079
      58A      0.114080    59A      0.114820    60A      0.114829
      61A      0.122485    62A      0.124629    63A      0.125182
      64A      0.125203    65A      0.128470    66A      0.128615
      67A      0.132775    68A      0.132776    69A      0.156284
      70A      0.158506    71A      0.159591    72A      0.161017
      73A      0.161069    74A      0.162355    75A      0.163313
      76A      0.166150    77A      0.174751    78A      0.175739
      79A      0.186791    80A      0.186796    81A      0.203783
      82A      0.203806    83A      0.212368    84A      0.212463
      85A      0.250391    86A      0.250391    87A      0.267599
      88A      0.267634    89A      0.277786    90A      0.278072
      91A      0.287678    92A      0.287682    93A      0.293040
      94A      0.293088    95A      0.294172    96A      0.297302
      97A      0.314691    98A      0.314720    99A      0.320331
     100A      0.320332   101A      0.354068   102A      0.356692
     103A      0.357783   104A      0.357796   105A      0.364528
     106A      0.364536   107A      0.382139   108A      0.382855
     109A      0.398535   110A      0.399064   111A      0.409567
     112A      0.410005   113A      0.424892   114A      0.425835
     115A      0.433805   116A      0.433806   117A      0.436602
     118A      0.437772   119A      0.451781   120A      0.452206
     121A      0.471358   122A      0.471378   123A      0.492013
     124A      0.492015   125A      0.504724   126A      0.504755
     127A      0.514783   128A      0.514806   129A      0.524231
     130A      0.524634   131A      0.528410   132A      0.528727
     133A      0.554441   134A      0.554467   135A      0.570379
     136A      0.570448   137A      0.587399   138A      0.587416
     139A      0.591328   140A      0.591438   141A      0.593661
     142A      0.593683   143A      0.608780   144A      0.608824
     145A      0.643355   146A      0.643389   147A      0.643962
     148A      0.644493   149A      0.684987   150A      0.685026
     151A      0.687630   152A      0.687634   153A      0.689328
     154A      0.689818   155A      0.689833   156A      0.691172
     157A      0.694691   158A      0.694715   159A      0.703226
     160A      0.704367   161A      0.746362   162A      0.746530
     163A      0.754695   164A      0.754695   165A      0.766835
     166A      0.766835   167A      0.781277   168A      0.781278
     169A      0.799662   170A      0.799729   171A      0.802507
     172A      0.802682   173A      0.818868   174A      0.818916
     175A      0.830944   176A      0.830944   177A      0.847291
     178A      0.847499   179A      0.880418   180A      0.880419
     181A      0.886281   182A      0.886287   183A      0.894558
     184A      0.894558   185A      0.929137   186A      0.929161
     187A      0.939252   188A      0.939446   189A      0.949104
     190A      0.949270   191A      0.996491   192A      0.996562
     193A      0.998775   194A      0.998777   195A      1.012884
     196A      1.012885   197A      1.032769   198A      1.033797
     199A      1.051059   200A      1.051081   201A      1.089232
     202A      1.089271   203A      1.100313   204A      1.100322
     205A      1.121884   206A      1.122290   207A      1.123905
     208A      1.123939   209A      1.134177   210A      1.134309
     211A      1.158445   212A      1.158819   213A      1.173432
     214A      1.173446   215A      1.235233   216A      1.235352
     217A      1.238666   218A      1.238694   219A      1.309447
     220A      1.309668   221A      1.331002   222A      1.331044
     223A      1.414129   224A      1.414189   225A      1.451361
     226A      1.451439   227A      1.485938   228A      1.486080
     229A      1.487943   230A      1.487948   231A      1.498873
     232A      1.499318   233A      1.502630   234A      1.502838
     235A      1.518121   236A      1.518136   237A      1.572552
     238A      1.572567   239A      1.573979   240A      1.574166
     241A      1.587588   242A      1.587853   243A      1.635804
     244A      1.635915   245A      1.640377   246A      1.640383
     247A      1.647790   248A      1.648453   249A      1.676421
     250A      1.676432   251A      1.716863   252A      1.716865
     253A      1.746472   254A      1.746472   255A      1.754975
     256A      1.754983   257A      1.783546   258A      1.783739
     259A      1.815602   260A      1.815602   261A      1.893192
     262A      1.893205   263A      1.916009   264A      1.916013
     265A      1.964700   266A      1.964706   267A      1.987542
     268A      1.987552   269A      2.031061   270A      2.031093
     271A      2.091406   272A      2.091441   273A      2.100784
     274A      2.101042   275A      2.142821   276A      2.142832
     277A      2.163229   278A      2.163229   279A      2.190363
     280A      2.190363   281A      2.192722   282A      2.193686
     283A      2.200197   284A      2.200328   285A      2.202284
     286A      2.202286   287A      2.227470   288A      2.227534
     289A      2.312623   290A      2.312646   291A      2.355028
     292A      2.355191   293A      2.430827   294A      2.430829
     295A      2.438845   296A      2.438854   297A      2.519230
     298A      2.519278   299A      2.522269   300A      2.522269
     301A      2.584609   302A      2.584663   303A      2.606137
     304A      2.606138   305A      2.665096   306A      2.665099
     307A      2.675280   308A      2.675280   309A      2.686208
     310A      2.686334   311A      2.713670   312A      2.714079
     313A      2.718443   314A      2.718494   315A      2.843886
     316A      2.843887   317A      2.865632   318A      2.865632
     319A      2.939046   320A      2.939095   321A      3.001670
     322A      3.001795   323A      3.017741   324A      3.017748
     325A      3.032038   326A      3.032084   327A      3.093977
     328A      3.094053   329A      3.218828   330A      3.221752
     331A      3.255853   332A      3.255854   333A      3.284679
     334A      3.284840   335A      3.365992   336A      3.366036
     337A      3.413220   338A      3.413265   339A      3.514770
     340A      3.514818   341A      3.590507   342A      3.590554
     343A      3.627626   344A      3.627659   345A      3.976951
     346A      3.977296   347A      4.253352   348A      4.253366

    Final Occupation by Irrep:
              A
    DOCC [    42 ]

  @DF-RHF Final Energy:  -525.27989623182953

   => Energetics <=

    Nuclear Repulsion Energy =            481.1360162034979453
    One-Electron Energy =               -1662.9732560909355925
    Two-Electron Energy =                 656.5573436556080651
    Total Energy =                       -525.2798962318295253

Computation Completed


Properties will be evaluated at   0.000000,   0.000000,   0.000000 [a0]

Properties computed using the SCF density matrix

  Nuclear Dipole Moment: [e a0]
     X:  -629.9801      Y:  -846.2957      Z:   628.3878

  Electronic Dipole Moment: [e a0]
     X:   629.9801      Y:   846.2957      Z:  -628.3878

  Dipole Moment: [e a0]
     X:     0.0000      Y:     0.0000      Z:     0.0000     Total:     0.0000

  Dipole Moment: [D]
     X:     0.0000      Y:     0.0000      Z:     0.0000     Total:     0.0000


*** tstop() called on atl1-1-01-013-11-r.pace.gatech.edu at Mon Nov 29 16:11:30 2021
Module time:
	user time   =      26.68 seconds =       0.44 minutes
	system time =       1.04 seconds =       0.02 minutes
	total time  =         14 seconds =       0.23 minutes
Total time:
	user time   =      26.68 seconds =       0.44 minutes
	system time =       1.04 seconds =       0.02 minutes
	total time  =         14 seconds =       0.23 minutes

  //>>>>>>>>>>>>>>>>>>>>>>>>>>>>>>>>>>>//
  //            Monomer A HF           //
  //<<<<<<<<<<<<<<<<<<<<<<<<<<<<<<<<<<<//


*** tstart() called on atl1-1-01-013-11-r.pace.gatech.edu
*** at Mon Nov 29 16:11:30 2021

   => Loading Basis Set <=

    Name: AUG-CC-PVDZ
    Role: ORBITAL
    Keyword: BASIS
    atoms 1-2, 11-12  entry N          line   218 file /storage/home/hhive1/csargent30/data/miniconda3/envs/psi4/share/psi4/basis/aug-cc-pvdz.gbs
    atoms 3-6, 13-16  entry H          line    40 file /storage/home/hhive1/csargent30/data/miniconda3/envs/psi4/share/psi4/basis/aug-cc-pvdz.gbs
    atoms 7-10, 17-20 entry C          line   182 file /storage/home/hhive1/csargent30/data/miniconda3/envs/psi4/share/psi4/basis/aug-cc-pvdz.gbs


         ---------------------------------------------------------
                                   SCF
               by Justin Turney, Rob Parrish, Andy Simmonett
                          and Daniel G. A. Smith
                              RHF Reference
                        2 Threads,   6675 MiB Core
         ---------------------------------------------------------

  ==> Geometry <==

    Molecular point group: c1
    Full point group: C1

    Geometry (in Bohr), charge = 0, multiplicity = 1:

       Center              X                  Y                   Z               Mass
    ------------   -----------------  -----------------  -----------------  -----------------
         N           -1.330847580000     0.980326580000     0.426270370000    14.003074004430
         N            3.953773330000     0.980326580000     0.426270370000    14.003074004430
         H            3.567136740000     4.352185690000    -0.942309730000     1.007825032230
         H           -0.944210980000     4.352185690000    -0.942309730000     1.007825032230
         H           -0.944210980000    -2.391532530000     1.794850470000     1.007825032230
         H            3.567136740000    -2.391532530000     1.794850470000     1.007825032230
         C            2.622925760000     2.940979740000    -0.426270370000    12.000000000000
         C            0.000000000000     2.940979740000    -0.426270370000    12.000000000000
         C            0.000000000000    -0.980326580000     1.278811120000    12.000000000000
         C            2.622925760000    -0.980326580000     1.278811120000    12.000000000000
      Gh(N)         -18.953299590000   -21.130224980000    14.535343570000    14.003074004430
      Gh(N)         -13.668678680000   -21.130224980000    14.535343570000    14.003074004430
      Gh(H)         -14.055315270000   -17.758365870000    13.166763470000     1.007825032230
      Gh(H)         -18.566662990000   -17.758365870000    13.166763470000     1.007825032230
      Gh(H)         -18.566662990000   -24.502084090000    15.903923670000     1.007825032230
      Gh(H)         -14.055315270000   -24.502084090000    15.903923670000     1.007825032230
      Gh(C)         -14.999526250000   -19.169571820000    13.682802820000    12.000000000000
      Gh(C)         -17.622452010000   -19.169571820000    13.682802820000    12.000000000000
      Gh(C)         -17.622452010000   -23.090878140000    15.387884320000    12.000000000000
      Gh(C)         -14.999526250000   -23.090878140000    15.387884320000    12.000000000000

  Running in c1 symmetry.

  Rotational constants: A =      0.08430  B =      0.00081  C =      0.00080 [cm^-1]
  Rotational constants: A =   2527.23444  B =     24.16514  C =     23.99125 [MHz]
  Nuclear repulsion =  212.551731110485349

  Charge       = 0
  Multiplicity = 1
  Electrons    = 42
  Nalpha       = 21
  Nbeta        = 21

  ==> Algorithm <==

  SCF Algorithm Type is DF.
  DIIS enabled.
  MOM disabled.
  Fractional occupation disabled.
  Guess Type is SAD.
  Energy threshold   = 1.00e-10
  Density threshold  = 1.00e-10
  Integral threshold = 1.00e-12

  ==> Primary Basis <==

  Basis Set: AUG-CC-PVDZ
    Blend: AUG-CC-PVDZ
    Number of shells: 148
    Number of basis functions: 348
    Number of Cartesian functions: 372
    Spherical Harmonics?: true
    Max angular momentum: 2

   => Loading Basis Set <=

    Name: (AUG-CC-PVDZ AUX)
    Role: JKFIT
    Keyword: DF_BASIS_SCF
    atoms 1-2, 11-12  entry N          line   212 file /storage/home/hhive1/csargent30/data/miniconda3/envs/psi4/share/psi4/basis/aug-cc-pvdz-jkfit.gbs
    atoms 3-6, 13-16  entry H          line    70 file /storage/home/hhive1/csargent30/data/miniconda3/envs/psi4/share/psi4/basis/aug-cc-pvdz-jkfit.gbs
    atoms 7-10, 17-20 entry C          line   154 file /storage/home/hhive1/csargent30/data/miniconda3/envs/psi4/share/psi4/basis/aug-cc-pvdz-jkfit.gbs

  ==> Integral Setup <==

  ==> DiskDFJK: Density-Fitted J/K Matrices <==

    J tasked:                  Yes
    K tasked:                  Yes
    wK tasked:                  No
    OpenMP threads:              2
    Integrals threads:           2
    Memory [MiB]:             5006
    Algorithm:                Core
    Integral Cache:           LOAD
    Schwarz Cutoff:          1E-12
    Fitting Condition:       1E-10

   => Auxiliary Basis Set <=

  Basis Set: (AUG-CC-PVDZ AUX)
    Blend: AUG-CC-PVDZ-JKFIT
    Number of shells: 432
    Number of basis functions: 1288
    Number of Cartesian functions: 1492
    Spherical Harmonics?: true
    Max angular momentum: 3

  Minimum eigenvalue in the overlap matrix is 9.3919254805E-06.
  Reciprocal condition number of the overlap matrix is 7.3253890411E-07.
    Using symmetric orthogonalization.

  ==> Pre-Iterations <==

  SCF Guess: Superposition of Atomic Densities via on-the-fly atomic UHF (no occupation information).

   -------------------------
    Irrep   Nso     Nmo
   -------------------------
     A        348     348
   -------------------------
    Total     348     348
   -------------------------

  ==> Iterations <==

                           Total Energy        Delta E     RMS |[F,P]|

   @DF-RHF iter SAD:  -262.32523126019402   -2.62325e+02   0.00000e+00
   @DF-RHF iter   1:  -262.53940799512714   -2.14177e-01   1.11985e-03 DIIS
   @DF-RHF iter   2:  -262.62878839290852   -8.93804e-02   4.10664e-04 DIIS
   @DF-RHF iter   3:  -262.63862293802794   -9.83455e-03   1.28248e-04 DIIS
   @DF-RHF iter   4:  -262.63984769119674   -1.22475e-03   3.77599e-05 DIIS
   @DF-RHF iter   5:  -262.63993729166697   -8.96005e-05   7.55558e-06 DIIS
   @DF-RHF iter   6:  -262.63994384192733   -6.55026e-06   2.45264e-06 DIIS
   @DF-RHF iter   7:  -262.63994479430096   -9.52374e-07   6.40130e-07 DIIS
   @DF-RHF iter   8:  -262.63994486818882   -7.38879e-08   9.91693e-08 DIIS
   @DF-RHF iter   9:  -262.63994487017442   -1.98560e-09   1.88228e-08 DIIS
   @DF-RHF iter  10:  -262.63994487024542   -7.09974e-11   3.19151e-09 DIIS
   @DF-RHF iter  11:  -262.63994487024848   -3.06954e-12   5.22324e-10 DIIS
   @DF-RHF iter  12:  -262.63994487024809    3.97904e-13   9.55047e-11 DIIS
  Energy and wave function converged.


  ==> Post-Iterations <==

    Orbital Energies [Eh]
    ---------------------

    Doubly Occupied:

       1A    -15.598072     2A    -15.598053     3A    -11.274239
       4A    -11.274194     5A    -11.272975     6A    -11.272969
       7A     -1.313347     8A     -1.224176     9A     -1.076803
      10A     -0.922662    11A     -0.919282    12A     -0.760637
      13A     -0.738402    14A     -0.706214    15A     -0.647687
      16A     -0.580711    17A     -0.574369    18A     -0.497113
      19A     -0.434288    20A     -0.415855    21A     -0.359924

    Virtual:

      22A      0.022228    23A      0.034462    24A      0.039213
      25A      0.040464    26A      0.041210    27A      0.048351
      28A      0.057599    29A      0.059675    30A      0.067113
      31A      0.079490    32A      0.084865    33A      0.099419
      34A      0.100939    35A      0.103709    36A      0.108308
      37A      0.108639    38A      0.114201    39A      0.114951
      40A      0.122308    41A      0.123462    42A      0.125322
      43A      0.125679    44A      0.128673    45A      0.130754
      46A      0.132889    47A      0.133950    48A      0.151283
      49A      0.152787    50A      0.158396    51A      0.159140
      52A      0.161119    53A      0.161699    54A      0.164158
      55A      0.175206    56A      0.176581    57A      0.186918
      58A      0.197767    59A      0.203735    60A      0.203910
      61A      0.206470    62A      0.212544    63A      0.222223
      64A      0.233490    65A      0.239223    66A      0.250518
      67A      0.255013    68A      0.267752    69A      0.270578
      70A      0.278093    71A      0.287813    72A      0.293208
      73A      0.295798    74A      0.302232    75A      0.314832
      76A      0.320442    77A      0.320462    78A      0.328023
      79A      0.331111    80A      0.343889    81A      0.355658
      82A      0.357909    83A      0.364661    84A      0.380274
      85A      0.382707    86A      0.385437    87A      0.398919
      88A      0.401079    89A      0.409922    90A      0.419064
      91A      0.424753    92A      0.425506    93A      0.433925
      94A      0.437263    95A      0.441730    96A      0.452105
      97A      0.460457    98A      0.460919    99A      0.471489
     100A      0.475886   101A      0.478642   102A      0.492140
     103A      0.504861   104A      0.507647   105A      0.514915
     106A      0.523519   107A      0.524622   108A      0.528688
     109A      0.535543   110A      0.554578   111A      0.557639
     112A      0.561316   113A      0.564300   114A      0.570533
     115A      0.581835   116A      0.587539   117A      0.591520
     118A      0.593802   119A      0.595806   120A      0.608933
     121A      0.614938   122A      0.619957   123A      0.636161
     124A      0.643520   125A      0.644347   126A      0.649155
     127A      0.651289   128A      0.679210   129A      0.684956
     130A      0.685217   131A      0.687760   132A      0.689936
     133A      0.690546   134A      0.694828   135A      0.703904
     136A      0.719707   137A      0.728202   138A      0.746464
     139A      0.746710   140A      0.754817   141A      0.766965
     142A      0.775480   143A      0.781406   144A      0.793428
     145A      0.799820   146A      0.802716   147A      0.810901
     148A      0.811792   149A      0.819020   150A      0.824545
     151A      0.831071   152A      0.847508   153A      0.847866
     154A      0.848998   155A      0.868406   156A      0.880545
     157A      0.886410   158A      0.887946   159A      0.894682
     160A      0.905902   161A      0.928909   162A      0.929286
     163A      0.939481   164A      0.947488   165A      0.949315
     166A      0.970580   167A      0.976728   168A      0.986428
     169A      0.996657   170A      0.998908   171A      1.013015
     172A      1.032210   173A      1.033414   174A      1.046727
     175A      1.051195   176A      1.076070   177A      1.089382
     178A      1.090072   179A      1.100446   180A      1.122196
     181A      1.124044   182A      1.130515   183A      1.134379
     184A      1.140062   185A      1.158758   186A      1.168388
     187A      1.170475   188A      1.173565   189A      1.192047
     190A      1.193044   191A      1.200267   192A      1.222123
     193A      1.235423   194A      1.238806   195A      1.250822
     196A      1.307351   197A      1.309685   198A      1.318055
     199A      1.326210   200A      1.329404   201A      1.331151
     202A      1.346605   203A      1.389017   204A      1.414284
     205A      1.448181   206A      1.451530   207A      1.455252
     208A      1.478935   209A      1.486131   210A      1.487017
     211A      1.488076   212A      1.499232   213A      1.502855
     214A      1.518253   215A      1.572687   216A      1.574200
     217A      1.587846   218A      1.635986   219A      1.640505
     220A      1.648244   221A      1.659044   222A      1.676552
     223A      1.697863   224A      1.716991   225A      1.746598
     226A      1.755104   227A      1.783769   228A      1.815727
     229A      1.893324   230A      1.916138   231A      1.964829
     232A      1.987675   233A      2.031203   234A      2.070029
     235A      2.091550   236A      2.101039   237A      2.102566
     238A      2.119246   239A      2.142954   240A      2.156477
     241A      2.158992   242A      2.163356   243A      2.190489
     244A      2.193331   245A      2.194662   246A      2.200384
     247A      2.202411   248A      2.227628   249A      2.234576
     250A      2.241013   251A      2.249462   252A      2.309818
     253A      2.312761   254A      2.319353   255A      2.355234
     256A      2.384614   257A      2.419026   258A      2.430957
     259A      2.435212   260A      2.437971   261A      2.438978
     262A      2.472477   263A      2.486525   264A      2.498122
     265A      2.519380   266A      2.522395   267A      2.524874
     268A      2.545798   269A      2.568141   270A      2.584766
     271A      2.592188   272A      2.606266   273A      2.625777
     274A      2.665224   275A      2.675409   276A      2.686400
     277A      2.713993   278A      2.716715   279A      2.718596
     280A      2.726450   281A      2.767733   282A      2.844014
     283A      2.865761   284A      2.903841   285A      2.939198
     286A      2.947030   287A      2.955550   288A      2.973139
     289A      3.001859   290A      3.017873   291A      3.032189
     292A      3.058131   293A      3.065042   294A      3.094141
     295A      3.113690   296A      3.220421   297A      3.245529
     298A      3.255980   299A      3.284885   300A      3.289478
     301A      3.321763   302A      3.337537   303A      3.340291
     304A      3.348459   305A      3.351181   306A      3.366142
     307A      3.412430   308A      3.413369   309A      3.470593
     310A      3.501787   311A      3.514922   312A      3.521188
     313A      3.590656   314A      3.604266   315A      3.605484
     316A      3.627770   317A      3.700311   318A      3.818779
     319A      3.830515   320A      3.940797   321A      3.968927
     322A      3.977250   323A      4.011243   324A      4.194591
     325A      4.242162   326A      4.253487   327A      4.441823
     328A      4.546658   329A      4.579104   330A      4.867467
     331A      4.975974   332A      5.057685   333A      5.261545
     334A      5.316372   335A      5.630055   336A      5.691153
     337A      5.826976   338A      5.952465   339A      6.283669
     340A      6.306722   341A      6.453599   342A      6.631032
     343A     18.125550   344A     18.207813   345A     19.017447
     346A     19.342835   347A     25.286887   348A     25.374607

    Final Occupation by Irrep:
              A
    DOCC [    21 ]

  @DF-RHF Final Energy:  -262.63994487024809

   => Energetics <=

    Nuclear Repulsion Energy =            212.5517311104853491
    One-Electron Energy =                -775.4594098639061031
    Two-Electron Energy =                 300.2677338831726956
    Total Energy =                       -262.6399448702480868

Computation Completed


Properties will be evaluated at   0.000000,   0.000000,   0.000000 [a0]

Properties computed using the SCF density matrix

  Nuclear Dipole Moment: [e a0]
     X:    55.0814      Y:    41.1737      Z:    17.9034

  Electronic Dipole Moment: [e a0]
     X:   -55.0814      Y:   -41.1737      Z:   -17.9034

  Dipole Moment: [e a0]
     X:    -0.0000      Y:    -0.0000      Z:     0.0000     Total:     0.0000

  Dipole Moment: [D]
     X:    -0.0000      Y:    -0.0000      Z:     0.0000     Total:     0.0000


*** tstop() called on atl1-1-01-013-11-r.pace.gatech.edu at Mon Nov 29 16:11:40 2021
Module time:
	user time   =      16.53 seconds =       0.28 minutes
	system time =       0.50 seconds =       0.01 minutes
	total time  =         10 seconds =       0.17 minutes
Total time:
	user time   =      43.22 seconds =       0.72 minutes
	system time =       1.54 seconds =       0.03 minutes
	total time  =         24 seconds =       0.40 minutes

  //>>>>>>>>>>>>>>>>>>>>>>>>>>>>>>>>>>>//
  //            Monomer B HF           //
  //<<<<<<<<<<<<<<<<<<<<<<<<<<<<<<<<<<<//


*** tstart() called on atl1-1-01-013-11-r.pace.gatech.edu
*** at Mon Nov 29 16:11:40 2021

   => Loading Basis Set <=

    Name: AUG-CC-PVDZ
    Role: ORBITAL
    Keyword: BASIS
    atoms 1-2, 11-12  entry N          line   218 file /storage/home/hhive1/csargent30/data/miniconda3/envs/psi4/share/psi4/basis/aug-cc-pvdz.gbs
    atoms 3-6, 13-16  entry H          line    40 file /storage/home/hhive1/csargent30/data/miniconda3/envs/psi4/share/psi4/basis/aug-cc-pvdz.gbs
    atoms 7-10, 17-20 entry C          line   182 file /storage/home/hhive1/csargent30/data/miniconda3/envs/psi4/share/psi4/basis/aug-cc-pvdz.gbs


         ---------------------------------------------------------
                                   SCF
               by Justin Turney, Rob Parrish, Andy Simmonett
                          and Daniel G. A. Smith
                              RHF Reference
                        2 Threads,   6675 MiB Core
         ---------------------------------------------------------

  ==> Geometry <==

    Molecular point group: c1
    Full point group: C1

    Geometry (in Bohr), charge = 0, multiplicity = 1:

       Center              X                  Y                   Z               Mass
    ------------   -----------------  -----------------  -----------------  -----------------
      Gh(N)          -1.330847580000     0.980326580000     0.426270370000    14.003074004430
      Gh(N)           3.953773330000     0.980326580000     0.426270370000    14.003074004430
      Gh(H)           3.567136740000     4.352185690000    -0.942309730000     1.007825032230
      Gh(H)          -0.944210980000     4.352185690000    -0.942309730000     1.007825032230
      Gh(H)          -0.944210980000    -2.391532530000     1.794850470000     1.007825032230
      Gh(H)           3.567136740000    -2.391532530000     1.794850470000     1.007825032230
      Gh(C)           2.622925760000     2.940979740000    -0.426270370000    12.000000000000
      Gh(C)           0.000000000000     2.940979740000    -0.426270370000    12.000000000000
      Gh(C)           0.000000000000    -0.980326580000     1.278811120000    12.000000000000
      Gh(C)           2.622925760000    -0.980326580000     1.278811120000    12.000000000000
         N          -18.953299590000   -21.130224980000    14.535343570000    14.003074004430
         N          -13.668678680000   -21.130224980000    14.535343570000    14.003074004430
         H          -14.055315270000   -17.758365870000    13.166763470000     1.007825032230
         H          -18.566662990000   -17.758365870000    13.166763470000     1.007825032230
         H          -18.566662990000   -24.502084090000    15.903923670000     1.007825032230
         H          -14.055315270000   -24.502084090000    15.903923670000     1.007825032230
         C          -14.999526250000   -19.169571820000    13.682802820000    12.000000000000
         C          -17.622452010000   -19.169571820000    13.682802820000    12.000000000000
         C          -17.622452010000   -23.090878140000    15.387884320000    12.000000000000
         C          -14.999526250000   -23.090878140000    15.387884320000    12.000000000000

  Running in c1 symmetry.

  Rotational constants: A =      0.08430  B =      0.00081  C =      0.00080 [cm^-1]
  Rotational constants: A =   2527.23444  B =     24.16514  C =     23.99125 [MHz]
  Nuclear repulsion =  212.551731042300531

  Charge       = 0
  Multiplicity = 1
  Electrons    = 42
  Nalpha       = 21
  Nbeta        = 21

  ==> Algorithm <==

  SCF Algorithm Type is DF.
  DIIS enabled.
  MOM disabled.
  Fractional occupation disabled.
  Guess Type is SAD.
  Energy threshold   = 1.00e-10
  Density threshold  = 1.00e-10
  Integral threshold = 1.00e-12

  ==> Primary Basis <==

  Basis Set: AUG-CC-PVDZ
    Blend: AUG-CC-PVDZ
    Number of shells: 148
    Number of basis functions: 348
    Number of Cartesian functions: 372
    Spherical Harmonics?: true
    Max angular momentum: 2

   => Loading Basis Set <=

    Name: (AUG-CC-PVDZ AUX)
    Role: JKFIT
    Keyword: DF_BASIS_SCF
    atoms 1-2, 11-12  entry N          line   212 file /storage/home/hhive1/csargent30/data/miniconda3/envs/psi4/share/psi4/basis/aug-cc-pvdz-jkfit.gbs
    atoms 3-6, 13-16  entry H          line    70 file /storage/home/hhive1/csargent30/data/miniconda3/envs/psi4/share/psi4/basis/aug-cc-pvdz-jkfit.gbs
    atoms 7-10, 17-20 entry C          line   154 file /storage/home/hhive1/csargent30/data/miniconda3/envs/psi4/share/psi4/basis/aug-cc-pvdz-jkfit.gbs

  ==> Integral Setup <==

  ==> DiskDFJK: Density-Fitted J/K Matrices <==

    J tasked:                  Yes
    K tasked:                  Yes
    wK tasked:                  No
    OpenMP threads:              2
    Integrals threads:           2
    Memory [MiB]:             5006
    Algorithm:                Core
    Integral Cache:           LOAD
    Schwarz Cutoff:          1E-12
    Fitting Condition:       1E-10

   => Auxiliary Basis Set <=

  Basis Set: (AUG-CC-PVDZ AUX)
    Blend: AUG-CC-PVDZ-JKFIT
    Number of shells: 432
    Number of basis functions: 1288
    Number of Cartesian functions: 1492
    Spherical Harmonics?: true
    Max angular momentum: 3

  Minimum eigenvalue in the overlap matrix is 9.3919254805E-06.
  Reciprocal condition number of the overlap matrix is 7.3253890411E-07.
    Using symmetric orthogonalization.

  ==> Pre-Iterations <==

  SCF Guess: Superposition of Atomic Densities via on-the-fly atomic UHF (no occupation information).

   -------------------------
    Irrep   Nso     Nmo
   -------------------------
     A        348     348
   -------------------------
    Total     348     348
   -------------------------

  ==> Iterations <==

                           Total Energy        Delta E     RMS |[F,P]|

   @DF-RHF iter SAD:  -262.32523125136368   -2.62325e+02   0.00000e+00
   @DF-RHF iter   1:  -262.53940799238188   -2.14177e-01   1.11985e-03 DIIS
   @DF-RHF iter   2:  -262.62878839003389   -8.93804e-02   4.10664e-04 DIIS
   @DF-RHF iter   3:  -262.63862293510272   -9.83455e-03   1.28248e-04 DIIS
   @DF-RHF iter   4:  -262.63984768827311   -1.22475e-03   3.77599e-05 DIIS
   @DF-RHF iter   5:  -262.63993728874334   -8.96005e-05   7.55558e-06 DIIS
   @DF-RHF iter   6:  -262.63994383900308   -6.55026e-06   2.45264e-06 DIIS
   @DF-RHF iter   7:  -262.63994479137580   -9.52373e-07   6.40130e-07 DIIS
   @DF-RHF iter   8:  -262.63994486526491   -7.38891e-08   9.91693e-08 DIIS
   @DF-RHF iter   9:  -262.63994486725068   -1.98577e-09   1.88228e-08 DIIS
   @DF-RHF iter  10:  -262.63994486732093   -7.02585e-11   3.19151e-09 DIIS
   @DF-RHF iter  11:  -262.63994486732383   -2.89901e-12   5.22334e-10 DIIS
   @DF-RHF iter  12:  -262.63994486732355    2.84217e-13   9.56068e-11 DIIS
  Energy and wave function converged.


  ==> Post-Iterations <==

    Orbital Energies [Eh]
    ---------------------

    Doubly Occupied:

       1A    -15.598072     2A    -15.598053     3A    -11.274239
       4A    -11.274194     5A    -11.272975     6A    -11.272969
       7A     -1.313347     8A     -1.224176     9A     -1.076803
      10A     -0.922662    11A     -0.919282    12A     -0.760637
      13A     -0.738402    14A     -0.706214    15A     -0.647687
      16A     -0.580711    17A     -0.574369    18A     -0.497113
      19A     -0.434288    20A     -0.415855    21A     -0.359924

    Virtual:

      22A      0.022228    23A      0.034462    24A      0.039213
      25A      0.040464    26A      0.041210    27A      0.048351
      28A      0.057599    29A      0.059675    30A      0.067113
      31A      0.079490    32A      0.084865    33A      0.099419
      34A      0.100939    35A      0.103709    36A      0.108308
      37A      0.108639    38A      0.114201    39A      0.114951
      40A      0.122308    41A      0.123462    42A      0.125322
      43A      0.125679    44A      0.128673    45A      0.130754
      46A      0.132889    47A      0.133950    48A      0.151283
      49A      0.152787    50A      0.158396    51A      0.159140
      52A      0.161119    53A      0.161699    54A      0.164158
      55A      0.175206    56A      0.176581    57A      0.186918
      58A      0.197767    59A      0.203735    60A      0.203910
      61A      0.206470    62A      0.212544    63A      0.222223
      64A      0.233490    65A      0.239223    66A      0.250518
      67A      0.255013    68A      0.267752    69A      0.270578
      70A      0.278093    71A      0.287813    72A      0.293208
      73A      0.295799    74A      0.302232    75A      0.314832
      76A      0.320442    77A      0.320462    78A      0.328023
      79A      0.331111    80A      0.343889    81A      0.355658
      82A      0.357909    83A      0.364661    84A      0.380274
      85A      0.382707    86A      0.385437    87A      0.398919
      88A      0.401079    89A      0.409922    90A      0.419064
      91A      0.424753    92A      0.425506    93A      0.433925
      94A      0.437263    95A      0.441730    96A      0.452105
      97A      0.460457    98A      0.460919    99A      0.471489
     100A      0.475886   101A      0.478642   102A      0.492140
     103A      0.504861   104A      0.507647   105A      0.514915
     106A      0.523519   107A      0.524622   108A      0.528688
     109A      0.535543   110A      0.554578   111A      0.557639
     112A      0.561316   113A      0.564300   114A      0.570533
     115A      0.581835   116A      0.587539   117A      0.591520
     118A      0.593802   119A      0.595806   120A      0.608933
     121A      0.614938   122A      0.619957   123A      0.636161
     124A      0.643520   125A      0.644347   126A      0.649155
     127A      0.651289   128A      0.679210   129A      0.684956
     130A      0.685217   131A      0.687760   132A      0.689936
     133A      0.690546   134A      0.694828   135A      0.703904
     136A      0.719707   137A      0.728202   138A      0.746464
     139A      0.746710   140A      0.754817   141A      0.766965
     142A      0.775480   143A      0.781406   144A      0.793428
     145A      0.799820   146A      0.802716   147A      0.810901
     148A      0.811792   149A      0.819020   150A      0.824545
     151A      0.831071   152A      0.847508   153A      0.847866
     154A      0.848998   155A      0.868406   156A      0.880545
     157A      0.886410   158A      0.887946   159A      0.894682
     160A      0.905902   161A      0.928909   162A      0.929286
     163A      0.939481   164A      0.947488   165A      0.949315
     166A      0.970580   167A      0.976728   168A      0.986428
     169A      0.996657   170A      0.998908   171A      1.013015
     172A      1.032210   173A      1.033414   174A      1.046727
     175A      1.051195   176A      1.076070   177A      1.089382
     178A      1.090072   179A      1.100446   180A      1.122196
     181A      1.124044   182A      1.130515   183A      1.134379
     184A      1.140062   185A      1.158758   186A      1.168388
     187A      1.170475   188A      1.173565   189A      1.192047
     190A      1.193044   191A      1.200267   192A      1.222123
     193A      1.235423   194A      1.238806   195A      1.250822
     196A      1.307351   197A      1.309685   198A      1.318055
     199A      1.326210   200A      1.329404   201A      1.331151
     202A      1.346605   203A      1.389017   204A      1.414284
     205A      1.448181   206A      1.451530   207A      1.455252
     208A      1.478935   209A      1.486131   210A      1.487017
     211A      1.488076   212A      1.499232   213A      1.502855
     214A      1.518253   215A      1.572687   216A      1.574200
     217A      1.587846   218A      1.635986   219A      1.640505
     220A      1.648244   221A      1.659044   222A      1.676552
     223A      1.697863   224A      1.716991   225A      1.746598
     226A      1.755104   227A      1.783769   228A      1.815727
     229A      1.893324   230A      1.916138   231A      1.964829
     232A      1.987675   233A      2.031203   234A      2.070029
     235A      2.091550   236A      2.101039   237A      2.102566
     238A      2.119246   239A      2.142954   240A      2.156477
     241A      2.158992   242A      2.163356   243A      2.190489
     244A      2.193331   245A      2.194662   246A      2.200384
     247A      2.202411   248A      2.227628   249A      2.234576
     250A      2.241013   251A      2.249462   252A      2.309818
     253A      2.312761   254A      2.319353   255A      2.355234
     256A      2.384614   257A      2.419026   258A      2.430957
     259A      2.435212   260A      2.437971   261A      2.438978
     262A      2.472477   263A      2.486525   264A      2.498122
     265A      2.519380   266A      2.522395   267A      2.524874
     268A      2.545798   269A      2.568141   270A      2.584766
     271A      2.592188   272A      2.606266   273A      2.625776
     274A      2.665224   275A      2.675409   276A      2.686400
     277A      2.713993   278A      2.716715   279A      2.718596
     280A      2.726450   281A      2.767733   282A      2.844014
     283A      2.865761   284A      2.903841   285A      2.939198
     286A      2.947030   287A      2.955550   288A      2.973139
     289A      3.001859   290A      3.017873   291A      3.032189
     292A      3.058131   293A      3.065042   294A      3.094141
     295A      3.113690   296A      3.220421   297A      3.245529
     298A      3.255980   299A      3.284885   300A      3.289478
     301A      3.321763   302A      3.337537   303A      3.340291
     304A      3.348459   305A      3.351181   306A      3.366142
     307A      3.412430   308A      3.413369   309A      3.470593
     310A      3.501787   311A      3.514922   312A      3.521188
     313A      3.590656   314A      3.604266   315A      3.605484
     316A      3.627770   317A      3.700311   318A      3.818779
     319A      3.830515   320A      3.940797   321A      3.968927
     322A      3.977250   323A      4.011243   324A      4.194591
     325A      4.242162   326A      4.253487   327A      4.441823
     328A      4.546658   329A      4.579104   330A      4.867467
     331A      4.975974   332A      5.057685   333A      5.261545
     334A      5.316372   335A      5.630055   336A      5.691153
     337A      5.826976   338A      5.952465   339A      6.283669
     340A      6.306722   341A      6.453599   342A      6.631032
     343A     18.125550   344A     18.207813   345A     19.017447
     346A     19.342835   347A     25.286887   348A     25.374607

    Final Occupation by Irrep:
              A
    DOCC [    21 ]

  @DF-RHF Final Energy:  -262.63994486732355

   => Energetics <=

    Nuclear Repulsion Energy =            212.5517310423005313
    One-Electron Energy =                -775.4594097265180608
    Two-Electron Energy =                 300.2677338168940082
    Total Energy =                       -262.6399448673235497

Computation Completed


Properties will be evaluated at   0.000000,   0.000000,   0.000000 [a0]

Properties computed using the SCF density matrix

  Nuclear Dipole Moment: [e a0]
     X:  -685.0615      Y:  -887.4694      Z:   610.4844

  Electronic Dipole Moment: [e a0]
     X:   685.0615      Y:   887.4694      Z:  -610.4844

  Dipole Moment: [e a0]
     X:     0.0000      Y:     0.0000      Z:    -0.0000     Total:     0.0000

  Dipole Moment: [D]
     X:     0.0000      Y:     0.0000      Z:    -0.0000     Total:     0.0000


*** tstop() called on atl1-1-01-013-11-r.pace.gatech.edu at Mon Nov 29 16:11:49 2021
Module time:
	user time   =      16.40 seconds =       0.27 minutes
	system time =       0.50 seconds =       0.01 minutes
	total time  =          9 seconds =       0.15 minutes
Total time:
	user time   =      59.63 seconds =       0.99 minutes
	system time =       2.04 seconds =       0.03 minutes
	total time  =         33 seconds =       0.55 minutes
  Constructing Basis Sets for SAPT...

   => Loading Basis Set <=

    Name: (AUG-CC-PVDZ AUX)
    Role: RIFIT
    Keyword: DF_BASIS_SAPT
    atoms 1-2, 11-12  entry N          line   158 file /storage/home/hhive1/csargent30/data/miniconda3/envs/psi4/share/psi4/basis/aug-cc-pvdz-ri.gbs
    atoms 3-6, 13-16  entry H          line    30 file /storage/home/hhive1/csargent30/data/miniconda3/envs/psi4/share/psi4/basis/aug-cc-pvdz-ri.gbs
    atoms 7-10, 17-20 entry C          line   112 file /storage/home/hhive1/csargent30/data/miniconda3/envs/psi4/share/psi4/basis/aug-cc-pvdz-ri.gbs


  //>>>>>>>>>>>>>>>>>>>>>>>>>>>>>>>>>>>//
  //               SAPT0               //
  //<<<<<<<<<<<<<<<<<<<<<<<<<<<<<<<<<<<//


*** tstart() called on atl1-1-01-013-11-r.pace.gatech.edu
*** at Mon Nov 29 16:11:49 2021

        SAPT0
    Ed Hohenstein
     6 June 2009

      Orbital Information
  --------------------------
    NSO        =       348
    NMO        =       348
    NRI        =      1048
    NOCC A     =        21
    NOCC B     =        21
    FOCC A     =         6
    FOCC B     =         6
    NVIR A     =       327
    NVIR B     =       327

    Elst10,r            =    -0.000006452854 [Eh]
    Exch10              =     0.000000000063 [Eh]
    Exch10 (S^2)        =     0.000000000063 [Eh]

    Iter     Energy [mEh]          dE [mEh]         Residual      Time [s]
       1      -0.00001274       0.000012736       0.042511587             0
       2      -0.00001144      -0.000001293       0.009883461             1
       3      -0.00001272       0.000001274       0.003182319             1
       4      -0.00001283       0.000000116       0.001064419             1
       5      -0.00001280      -0.000000029       0.000428676             2
       6      -0.00001279      -0.000000010       0.000174593             2
       7      -0.00001280       0.000000003       0.000104340             3
       8      -0.00001280       0.000000003       0.000030980             3
       9      -0.00001280      -0.000000001       0.000011555             3
      10      -0.00001280      -0.000000000       0.000002988             4
      11      -0.00001280       0.000000000       0.000001216             4
      12      -0.00001280       0.000000000       0.000000370             4

    CHF Iterations converged


    Iter     Energy [mEh]          dE [mEh]         Residual      Time [s]
       1      -0.00001274       0.000012736       0.042511588             1
       2      -0.00001144      -0.000001293       0.009883461             1
       3      -0.00001272       0.000001274       0.003182319             1
       4      -0.00001283       0.000000116       0.001064419             2
       5      -0.00001280      -0.000000029       0.000428676             2
       6      -0.00001279      -0.000000010       0.000174593             3
       7      -0.00001280       0.000000003       0.000104340             3
       8      -0.00001280       0.000000003       0.000030980             3
       9      -0.00001280      -0.000000001       0.000011555             4
      10      -0.00001280      -0.000000000       0.000002988             4
      11      -0.00001280       0.000000000       0.000001216             4
      12      -0.00001280       0.000000000       0.000000370             5

    CHF Iterations converged

    Ind20,r (A<-B)      =    -0.000000012798 [Eh]
    Ind20,r (B<-A)      =    -0.000000012798 [Eh]
    Ind20,r             =    -0.000000025595 [Eh]
    Exch-Ind20,r (A<-B) =     0.000000000041 [Eh]
    Exch-Ind20,r (B<-A) =     0.000000000041 [Eh]
    Exch-Ind20,r        =     0.000000000083 [Eh]
    Disp20              =    -0.000002128232 [Eh]
    Disp20 (SS)         =    -0.000001064116 [Eh]
    Disp20 (OS)         =    -0.000001064116 [Eh]
    Exch-Disp20         =     0.000000000003 [Eh]
    Exch-Disp20 (SS)    =     0.000000000002 [Eh]
    Exch-Disp20 (OS)    =     0.000000000001 [Eh]

    SAPT Results
  --------------------------------------------------------------------------------------------------------
    Electrostatics                 -0.00645285 [mEh]      -0.00404923 [kcal/mol]      -0.01694197 [kJ/mol]
      Elst10,r                     -0.00645285 [mEh]      -0.00404923 [kcal/mol]      -0.01694197 [kJ/mol]

    Exchange                        0.00000006 [mEh]       0.00000004 [kcal/mol]       0.00000016 [kJ/mol]
      Exch10                        0.00000006 [mEh]       0.00000004 [kcal/mol]       0.00000016 [kJ/mol]
      Exch10(S^2)                   0.00000006 [mEh]       0.00000004 [kcal/mol]       0.00000016 [kJ/mol]

    Induction                      -0.00004147 [mEh]      -0.00002602 [kcal/mol]      -0.00010887 [kJ/mol]
      Ind20,r                      -0.00002560 [mEh]      -0.00001606 [kcal/mol]      -0.00006720 [kJ/mol]
      Exch-Ind20,r                  0.00000008 [mEh]       0.00000005 [kcal/mol]       0.00000022 [kJ/mol]
      delta HF,r (2)               -0.00001595 [mEh]      -0.00001001 [kcal/mol]      -0.00004189 [kJ/mol]

    Dispersion                     -0.00212823 [mEh]      -0.00133548 [kcal/mol]      -0.00558767 [kJ/mol]
      Disp20                       -0.00212823 [mEh]      -0.00133549 [kcal/mol]      -0.00558767 [kJ/mol]
      Exch-Disp20                   0.00000000 [mEh]       0.00000000 [kcal/mol]       0.00000001 [kJ/mol]
      Disp20 (SS)                  -0.00106412 [mEh]      -0.00066774 [kcal/mol]      -0.00279384 [kJ/mol]
      Disp20 (OS)                  -0.00106412 [mEh]      -0.00066774 [kcal/mol]      -0.00279384 [kJ/mol]
      Exch-Disp20 (SS)              0.00000000 [mEh]       0.00000000 [kcal/mol]       0.00000001 [kJ/mol]
      Exch-Disp20 (OS)              0.00000000 [mEh]       0.00000000 [kcal/mol]       0.00000000 [kJ/mol]

  Total HF                         -0.00649426 [mEh]      -0.00407521 [kcal/mol]      -0.01705067 [kJ/mol]
  Total SAPT0                      -0.00862249 [mEh]      -0.00541069 [kcal/mol]      -0.02263834 [kJ/mol]

  Special recipe for scaled SAPT0 (see Manual):
    Electrostatics sSAPT0          -0.00645285 [mEh]      -0.00404923 [kcal/mol]      -0.01694197 [kJ/mol]
    Exchange sSAPT0                 0.00000006 [mEh]       0.00000004 [kcal/mol]       0.00000016 [kJ/mol]
    Induction sSAPT0               -0.00004147 [mEh]      -0.00002602 [kcal/mol]      -0.00010887 [kJ/mol]
    Dispersion sSAPT0              -0.00212823 [mEh]      -0.00133548 [kcal/mol]      -0.00558767 [kJ/mol]
  Total sSAPT0                     -0.00862249 [mEh]      -0.00541069 [kcal/mol]      -0.02263834 [kJ/mol]
  --------------------------------------------------------------------------------------------------------

*** tstop() called on atl1-1-01-013-11-r.pace.gatech.edu at Mon Nov 29 16:12:33 2021
Module time:
	user time   =      38.96 seconds =       0.65 minutes
	system time =       9.28 seconds =       0.15 minutes
	total time  =         44 seconds =       0.73 minutes
Total time:
	user time   =      98.83 seconds =       1.65 minutes
	system time =      11.33 seconds =       0.19 minutes
	total time  =         77 seconds =       1.28 minutes


Warning! sapt0 does not have an associated derived wavefunction.The returned wavefunction is the dimer SCF wavefunction.


    Psi4 stopped on: Monday, 29 November 2021 04:12PM
    Psi4 wall time for execution: 0:01:17.68

*** Psi4 exiting successfully. Buy a developer a beer!
