
    -----------------------------------------------------------------------
          Psi4: An Open-Source Ab Initio Electronic Structure Package
                               Psi4 1.4.1 release

                         Git: Rev {HEAD} cd00f19 


    D. G. A. Smith, L. A. Burns, A. C. Simmonett, R. M. Parrish,
    M. C. Schieber, R. Galvelis, P. Kraus, H. Kruse, R. Di Remigio,
    A. Alenaizan, A. M. James, S. Lehtola, J. P. Misiewicz, M. Scheurer,
    R. A. Shaw, J. B. Schriber, Y. Xie, Z. L. Glick, D. A. Sirianni,
    J. S. O'Brien, J. M. Waldrop, A. Kumar, E. G. Hohenstein,
    B. P. Pritchard, B. R. Brooks, H. F. Schaefer III, A. Yu. Sokolov,
    K. Patkowski, A. E. DePrince III, U. Bozkaya, R. A. King,
    F. A. Evangelista, J. M. Turney, T. D. Crawford, C. D. Sherrill,
    J. Chem. Phys. 152(18) 184108 (2020). https://doi.org/10.1063/5.0006002

                            Additional Code Authors
    E. T. Seidl, C. L. Janssen, E. F. Valeev, M. L. Leininger,
    J. F. Gonthier, R. M. Richard, H. R. McAlexander, M. Saitow, X. Wang,
    P. Verma, and M. H. Lechner

             Previous Authors, Complete List of Code Contributors,
                       and Citations for Specific Modules
    https://github.com/psi4/psi4/blob/master/codemeta.json
    https://github.com/psi4/psi4/graphs/contributors
    http://psicode.org/psi4manual/master/introduction.html#citing-psifour

    -----------------------------------------------------------------------


    Psi4 started on: Monday, 29 November 2021 04:10PM

    Process ID: 397023
    Host:       atl1-1-01-013-9-r.pace.gatech.edu
    PSIDATADIR: /storage/home/hhive1/csargent30/data/miniconda3/envs/psi4/share/psi4
    Memory:     500.0 MiB
    Threads:    2
    
  ==> Input File <==

--------------------------------------------------------------------------
# PSI4 file produced by CrystaLattE

# Generated from:               pyrazine.xyz
# Psithon input for N-mer:      2mer-0+290
# Number of atoms per monomer:  [10, 10]
# Number of replicas:           2
# COM priority:                 2.278686158065e-05
# Minimum COM separations:      18.666 
# Separation priority:          2.725988252114e-05
# Minimum monomer separations:  17.583 
# Cutoff priority:              8.204119415960e-07
# Nuclear repulsion energy:     474.87863538711184

memory 7 GB

molecule Dimer_0_290 {
  N           -1.33084758       0.98032658       0.42627037 
  N            3.95377333       0.98032658       0.42627037 
  H            3.56713674       4.35218569      -0.94230973 
  H           -0.94421098       4.35218569      -0.94230973 
  H           -0.94421098      -2.39153253       1.79485047 
  H            3.56713674      -2.39153253       1.79485047 
  C            2.62292576       2.94097974      -0.42627037 
  C            0.00000000       2.94097974      -0.42627037 
  C            0.00000000      -0.98032658       1.27881112 
  C            2.62292576      -0.98032658       1.27881112 
--
  N           -1.33084758       0.98032658     -34.84641262 
  N            3.95377333       0.98032658     -34.84641262 
  H            3.56713674       4.35218569     -36.21499272 
  H           -0.94421098       4.35218569     -36.21499272 
  H           -0.94421098      -2.39153253     -33.47783252 
  H            3.56713674      -2.39153253     -33.47783252 
  C            2.62292576       2.94097974     -35.69895337 
  C            0.00000000       2.94097974     -35.69895337 
  C            0.00000000      -0.98032658     -33.99387187 
  C            2.62292576      -0.98032658     -33.99387187 
units = au
no_com
no_reorient
}

set {
  e_convergence 10
  d_convergence 10
  scf_type df
  mp2_type df
  cc_type df
  freeze_core true
}

energy('sapt0/aug-cc-pvdz')

--------------------------------------------------------------------------

  Memory set to   6.519 GiB by Python driver.

Scratch directory: /tmp/

Scratch directory: /tmp/

  //>>>>>>>>>>>>>>>>>>>>>>>>>>>>>>>>>>>//
  //              Dimer HF             //
  //<<<<<<<<<<<<<<<<<<<<<<<<<<<<<<<<<<<//


*** tstart() called on atl1-1-01-013-9-r.pace.gatech.edu
*** at Mon Nov 29 16:10:43 2021

   => Loading Basis Set <=

    Name: AUG-CC-PVDZ
    Role: ORBITAL
    Keyword: BASIS
    atoms 1-2, 11-12  entry N          line   218 file /storage/home/hhive1/csargent30/data/miniconda3/envs/psi4/share/psi4/basis/aug-cc-pvdz.gbs 
    atoms 3-6, 13-16  entry H          line    40 file /storage/home/hhive1/csargent30/data/miniconda3/envs/psi4/share/psi4/basis/aug-cc-pvdz.gbs 
    atoms 7-10, 17-20 entry C          line   182 file /storage/home/hhive1/csargent30/data/miniconda3/envs/psi4/share/psi4/basis/aug-cc-pvdz.gbs 


         ---------------------------------------------------------
                                   SCF
               by Justin Turney, Rob Parrish, Andy Simmonett
                          and Daniel G. A. Smith
                              RHF Reference
                        2 Threads,   6675 MiB Core
         ---------------------------------------------------------

  ==> Geometry <==

    Molecular point group: c1
    Full point group: C1

    Geometry (in Bohr), charge = 0, multiplicity = 1:

       Center              X                  Y                   Z               Mass       
    ------------   -----------------  -----------------  -----------------  -----------------
         N           -1.330847580000     0.980326580000     0.426270370000    14.003074004430
         N            3.953773330000     0.980326580000     0.426270370000    14.003074004430
         H            3.567136740000     4.352185690000    -0.942309730000     1.007825032230
         H           -0.944210980000     4.352185690000    -0.942309730000     1.007825032230
         H           -0.944210980000    -2.391532530000     1.794850470000     1.007825032230
         H            3.567136740000    -2.391532530000     1.794850470000     1.007825032230
         C            2.622925760000     2.940979740000    -0.426270370000    12.000000000000
         C            0.000000000000     2.940979740000    -0.426270370000    12.000000000000
         C            0.000000000000    -0.980326580000     1.278811120000    12.000000000000
         C            2.622925760000    -0.980326580000     1.278811120000    12.000000000000
         N           -1.330847580000     0.980326580000   -34.846412620000    14.003074004430
         N            3.953773330000     0.980326580000   -34.846412620000    14.003074004430
         H            3.567136740000     4.352185690000   -36.214992720000     1.007825032230
         H           -0.944210980000     4.352185690000   -36.214992720000     1.007825032230
         H           -0.944210980000    -2.391532530000   -33.477832520000     1.007825032230
         H            3.567136740000    -2.391532530000   -33.477832520000     1.007825032230
         C            2.622925760000     2.940979740000   -35.698953370000    12.000000000000
         C            0.000000000000     2.940979740000   -35.698953370000    12.000000000000
         C            0.000000000000    -0.980326580000   -33.993871870000    12.000000000000
         C            2.622925760000    -0.980326580000   -33.993871870000    12.000000000000

  Running in c1 symmetry.

  Rotational constants: A =      0.04760  B =      0.00061  C =      0.00061 [cm^-1]
  Rotational constants: A =   1426.86468  B =     18.41605  C =     18.36244 [MHz]
  Nuclear repulsion =  474.878635318079262

  Charge       = 0
  Multiplicity = 1
  Electrons    = 84
  Nalpha       = 42
  Nbeta        = 42

  ==> Algorithm <==

  SCF Algorithm Type is DF.
  DIIS enabled.
  MOM disabled.
  Fractional occupation disabled.
  Guess Type is SAD.
  Energy threshold   = 1.00e-10
  Density threshold  = 1.00e-10
  Integral threshold = 1.00e-12

  ==> Primary Basis <==

  Basis Set: AUG-CC-PVDZ
    Blend: AUG-CC-PVDZ
    Number of shells: 148
    Number of basis functions: 348
    Number of Cartesian functions: 372
    Spherical Harmonics?: true
    Max angular momentum: 2

   => Loading Basis Set <=

    Name: (AUG-CC-PVDZ AUX)
    Role: JKFIT
    Keyword: DF_BASIS_SCF
    atoms 1-2, 11-12  entry N          line   212 file /storage/home/hhive1/csargent30/data/miniconda3/envs/psi4/share/psi4/basis/aug-cc-pvdz-jkfit.gbs 
    atoms 3-6, 13-16  entry H          line    70 file /storage/home/hhive1/csargent30/data/miniconda3/envs/psi4/share/psi4/basis/aug-cc-pvdz-jkfit.gbs 
    atoms 7-10, 17-20 entry C          line   154 file /storage/home/hhive1/csargent30/data/miniconda3/envs/psi4/share/psi4/basis/aug-cc-pvdz-jkfit.gbs 

  ==> Integral Setup <==

  ==> DiskDFJK: Density-Fitted J/K Matrices <==

    J tasked:                  Yes
    K tasked:                  Yes
    wK tasked:                  No
    OpenMP threads:              2
    Integrals threads:           2
    Memory [MiB]:             5006
    Algorithm:                Core
    Integral Cache:           SAVE
    Schwarz Cutoff:          1E-12
    Fitting Condition:       1E-10

   => Auxiliary Basis Set <=

  Basis Set: (AUG-CC-PVDZ AUX)
    Blend: AUG-CC-PVDZ-JKFIT
    Number of shells: 432
    Number of basis functions: 1288
    Number of Cartesian functions: 1492
    Spherical Harmonics?: true
    Max angular momentum: 3

  Minimum eigenvalue in the overlap matrix is 9.4898245907E-06.
  Reciprocal condition number of the overlap matrix is 7.4017520477E-07.
    Using symmetric orthogonalization.

  ==> Pre-Iterations <==

  SCF Guess: Superposition of Atomic Densities via on-the-fly atomic UHF (no occupation information).

   -------------------------
    Irrep   Nso     Nmo    
   -------------------------
     A        348     348 
   -------------------------
    Total     348     348
   -------------------------

  ==> Iterations <==

                           Total Energy        Delta E     RMS |[F,P]|

   @DF-RHF iter SAD:  -524.65046251032118   -5.24650e+02   0.00000e+00 
   @DF-RHF iter   1:  -525.07881616592385   -4.28354e-01   1.58371e-03 DIIS
   @DF-RHF iter   2:  -525.25757681607911   -1.78761e-01   5.80765e-04 DIIS
   @DF-RHF iter   3:  -525.27724578368566   -1.96690e-02   1.81369e-04 DIIS
   @DF-RHF iter   4:  -525.27969528068274   -2.44950e-03   5.34003e-05 DIIS
   @DF-RHF iter   5:  -525.27987447958492   -1.79199e-04   1.06854e-05 DIIS
   @DF-RHF iter   6:  -525.27988758034326   -1.31008e-05   3.46859e-06 DIIS
   @DF-RHF iter   7:  -525.27988948512188   -1.90478e-06   9.05289e-07 DIIS
   @DF-RHF iter   8:  -525.27988963289977   -1.47778e-07   1.40274e-07 DIIS
   @DF-RHF iter   9:  -525.27988963686983   -3.97006e-09   2.67948e-08 DIIS
   @DF-RHF iter  10:  -525.27988963701307   -1.43245e-10   5.72087e-09 DIIS
   @DF-RHF iter  11:  -525.27988963701682   -3.75167e-12   2.93976e-09 DIIS
   @DF-RHF iter  12:  -525.27988963701728   -4.54747e-13   4.55798e-10 DIIS
   @DF-RHF iter  13:  -525.27988963701694    3.41061e-13   9.76301e-11 DIIS
  Energy and wave function converged.


  ==> Post-Iterations <==

    Orbital Energies [Eh]
    ---------------------

    Doubly Occupied:                                                      

       1A    -15.598063     2A    -15.598063     3A    -15.598045  
       4A    -15.598045     5A    -11.274230     6A    -11.274230  
       7A    -11.274185     8A    -11.274185     9A    -11.272967  
      10A    -11.272967    11A    -11.272960    12A    -11.272960  
      13A     -1.313338    14A     -1.313338    15A     -1.224167  
      16A     -1.224167    17A     -1.076795    18A     -1.076795  
      19A     -0.922654    20A     -0.922654    21A     -0.919274  
      22A     -0.919274    23A     -0.760628    24A     -0.760628  
      25A     -0.738393    26A     -0.738393    27A     -0.706205  
      28A     -0.706205    29A     -0.647679    30A     -0.647679  
      31A     -0.580702    32A     -0.580702    33A     -0.574361  
      34A     -0.574361    35A     -0.497104    36A     -0.497104  
      37A     -0.434280    38A     -0.434280    39A     -0.415847  
      40A     -0.415847    41A     -0.359916    42A     -0.359916  

    Virtual:                                                              

      43A      0.034506    44A      0.034507    45A      0.040749  
      46A      0.040750    47A      0.048397    48A      0.048398  
      49A      0.058606    50A      0.058606    51A      0.067120  
      52A      0.067120    53A      0.099428    54A      0.099428  
      55A      0.100957    56A      0.100957    57A      0.114207  
      58A      0.114207    59A      0.114958    60A      0.114958  
      61A      0.123788    62A      0.123789    63A      0.125329  
      64A      0.125329    65A      0.128673    66A      0.128674  
      67A      0.132896    68A      0.132896    69A      0.158209  
      70A      0.158211    71A      0.161092    72A      0.161094  
      73A      0.161339    74A      0.161340    75A      0.163925  
      76A      0.163927    77A      0.175191    78A      0.175192  
      79A      0.186926    80A      0.186926    81A      0.203915  
      82A      0.203915    83A      0.212547    84A      0.212547  
      85A      0.250525    86A      0.250525    87A      0.267766  
      88A      0.267766    89A      0.278065    90A      0.278065  
      91A      0.287821    92A      0.287821    93A      0.293216  
      94A      0.293216    95A      0.295760    96A      0.295762  
      97A      0.314843    98A      0.314843    99A      0.320466  
     100A      0.320466   101A      0.355438   102A      0.355439  
     103A      0.357916   104A      0.357916   105A      0.364669  
     106A      0.364669   107A      0.382592   108A      0.382593  
     109A      0.398899   110A      0.398900   111A      0.409905  
     112A      0.409906   113A      0.425463   114A      0.425464  
     115A      0.433934   116A      0.433934   117A      0.437221  
     118A      0.437223   119A      0.452102   120A      0.452102  
     121A      0.471491   122A      0.471492   123A      0.492148  
     124A      0.492148   125A      0.504870   126A      0.504870  
     127A      0.514921   128A      0.514921   129A      0.524556  
     130A      0.524556   131A      0.528675   132A      0.528676  
     133A      0.554586   134A      0.554586   135A      0.570544  
     136A      0.570544   137A      0.587543   138A      0.587543  
     139A      0.591514   140A      0.591514   141A      0.593808  
     142A      0.593808   143A      0.608939   144A      0.608939  
     145A      0.643527   146A      0.643527   147A      0.644330  
     148A      0.644330   149A      0.685145   150A      0.685145  
     151A      0.687767   152A      0.687767   153A      0.689940  
     154A      0.689940   155A      0.690351   156A      0.690351  
     157A      0.694837   158A      0.694837   159A      0.703839  
     160A      0.703840   161A      0.746567   162A      0.746567  
     163A      0.754826   164A      0.754826   165A      0.766974  
     166A      0.766974   167A      0.781414   168A      0.781414  
     169A      0.799824   170A      0.799824   171A      0.802717  
     172A      0.802717   173A      0.819023   174A      0.819023  
     175A      0.831079   176A      0.831079   177A      0.847522  
     178A      0.847522   179A      0.880553   180A      0.880553  
     181A      0.886419   182A      0.886419   183A      0.894690  
     184A      0.894690   185A      0.929281   186A      0.929281  
     187A      0.939474   188A      0.939474   189A      0.949315  
     190A      0.949316   191A      0.996661   192A      0.996661  
     193A      0.998917   194A      0.998917   195A      1.013024  
     196A      1.013024   197A      1.033379   198A      1.033379  
     199A      1.051202   200A      1.051202   201A      1.089390  
     202A      1.089390   203A      1.100454   204A      1.100454  
     205A      1.122207   206A      1.122208   207A      1.124052  
     208A      1.124052   209A      1.134371   210A      1.134371  
     211A      1.158749   212A      1.158750   213A      1.173573  
     214A      1.173573   215A      1.235425   216A      1.235425  
     217A      1.238814   218A      1.238814   219A      1.309682  
     220A      1.309682   221A      1.331156   222A      1.331156  
     223A      1.414290   224A      1.414290   225A      1.451535  
     226A      1.451535   227A      1.486146   228A      1.486146  
     229A      1.488083   230A      1.488083   231A      1.499219  
     232A      1.499219   233A      1.502853   234A      1.502854  
     235A      1.518260   236A      1.518261   237A      1.572694  
     238A      1.572694   239A      1.574200   240A      1.574201  
     241A      1.587844   242A      1.587845   243A      1.635990  
     244A      1.635990   245A      1.640513   246A      1.640513  
     247A      1.648228   248A      1.648228   249A      1.676560  
     250A      1.676560   251A      1.716999   252A      1.716999  
     253A      1.746606   254A      1.746606   255A      1.755112  
     256A      1.755112   257A      1.783771   258A      1.783771  
     259A      1.815736   260A      1.815736   261A      1.893332  
     262A      1.893332   263A      1.916146   264A      1.916146  
     265A      1.964837   266A      1.964837   267A      1.987683  
     268A      1.987683   269A      2.031211   270A      2.031211  
     271A      2.091557   272A      2.091557   273A      2.101036  
     274A      2.101036   275A      2.142962   276A      2.142962  
     277A      2.163364   278A      2.163364   279A      2.190497  
     280A      2.190497   281A      2.193310   282A      2.193310  
     283A      2.200388   284A      2.200388   285A      2.202419  
     286A      2.202419   287A      2.227634   288A      2.227634  
     289A      2.312769   290A      2.312769   291A      2.355237  
     292A      2.355237   293A      2.430965   294A      2.430965  
     295A      2.438985   296A      2.438985   297A      2.519388  
     298A      2.519388   299A      2.522403   300A      2.522403  
     301A      2.584775   302A      2.584775   303A      2.606275  
     304A      2.606275   305A      2.665233   306A      2.665233  
     307A      2.675418   308A      2.675418   309A      2.686403  
     310A      2.686403   311A      2.713993   312A      2.713993  
     313A      2.718600   314A      2.718600   315A      2.844023  
     316A      2.844023   317A      2.865769   318A      2.865769  
     319A      2.939205   320A      2.939205   321A      3.001864  
     322A      3.001864   323A      3.017880   324A      3.017880  
     325A      3.032195   326A      3.032195   327A      3.094145  
     328A      3.094145   329A      3.220324   330A      3.220325  
     331A      3.255988   332A      3.255988   333A      3.284888  
     334A      3.284889   335A      3.366148   336A      3.366148  
     337A      3.413376   338A      3.413376   339A      3.514929  
     340A      3.514929   341A      3.590663   342A      3.590663  
     343A      3.627777   344A      3.627777   345A      3.977245  
     346A      3.977245   347A      4.253494   348A      4.253494  

    Final Occupation by Irrep:
              A 
    DOCC [    42 ]

  @DF-RHF Final Energy:  -525.27988963701694

   => Energetics <=

    Nuclear Repulsion Energy =            474.8786353180792617
    One-Electron Energy =               -1650.4698760910046076
    Two-Electron Energy =                 650.3113511359084669
    Total Energy =                       -525.2798896370169359

Computation Completed


Properties will be evaluated at   0.000000,   0.000000,   0.000000 [a0]

Properties computed using the SCF density matrix

  Nuclear Dipole Moment: [e a0]
     X:   110.1629      Y:    82.3474      Z: -1445.6460

  Electronic Dipole Moment: [e a0]
     X:  -110.1629      Y:   -82.3474      Z:  1445.6460

  Dipole Moment: [e a0]
     X:     0.0000      Y:     0.0000      Z:    -0.0000     Total:     0.0000

  Dipole Moment: [D]
     X:     0.0000      Y:     0.0000      Z:    -0.0000     Total:     0.0000


*** tstop() called on atl1-1-01-013-9-r.pace.gatech.edu at Mon Nov 29 16:10:57 2021
Module time:
	user time   =      26.40 seconds =       0.44 minutes
	system time =       0.93 seconds =       0.02 minutes
	total time  =         14 seconds =       0.23 minutes
Total time:
	user time   =      26.40 seconds =       0.44 minutes
	system time =       0.93 seconds =       0.02 minutes
	total time  =         14 seconds =       0.23 minutes

  //>>>>>>>>>>>>>>>>>>>>>>>>>>>>>>>>>>>//
  //            Monomer A HF           //
  //<<<<<<<<<<<<<<<<<<<<<<<<<<<<<<<<<<<//


*** tstart() called on atl1-1-01-013-9-r.pace.gatech.edu
*** at Mon Nov 29 16:10:57 2021

   => Loading Basis Set <=

    Name: AUG-CC-PVDZ
    Role: ORBITAL
    Keyword: BASIS
    atoms 1-2, 11-12  entry N          line   218 file /storage/home/hhive1/csargent30/data/miniconda3/envs/psi4/share/psi4/basis/aug-cc-pvdz.gbs 
    atoms 3-6, 13-16  entry H          line    40 file /storage/home/hhive1/csargent30/data/miniconda3/envs/psi4/share/psi4/basis/aug-cc-pvdz.gbs 
    atoms 7-10, 17-20 entry C          line   182 file /storage/home/hhive1/csargent30/data/miniconda3/envs/psi4/share/psi4/basis/aug-cc-pvdz.gbs 


         ---------------------------------------------------------
                                   SCF
               by Justin Turney, Rob Parrish, Andy Simmonett
                          and Daniel G. A. Smith
                              RHF Reference
                        2 Threads,   6675 MiB Core
         ---------------------------------------------------------

  ==> Geometry <==

    Molecular point group: c1
    Full point group: C1

    Geometry (in Bohr), charge = 0, multiplicity = 1:

       Center              X                  Y                   Z               Mass       
    ------------   -----------------  -----------------  -----------------  -----------------
         N           -1.330847580000     0.980326580000     0.426270370000    14.003074004430
         N            3.953773330000     0.980326580000     0.426270370000    14.003074004430
         H            3.567136740000     4.352185690000    -0.942309730000     1.007825032230
         H           -0.944210980000     4.352185690000    -0.942309730000     1.007825032230
         H           -0.944210980000    -2.391532530000     1.794850470000     1.007825032230
         H            3.567136740000    -2.391532530000     1.794850470000     1.007825032230
         C            2.622925760000     2.940979740000    -0.426270370000    12.000000000000
         C            0.000000000000     2.940979740000    -0.426270370000    12.000000000000
         C            0.000000000000    -0.980326580000     1.278811120000    12.000000000000
         C            2.622925760000    -0.980326580000     1.278811120000    12.000000000000
      Gh(N)          -1.330847580000     0.980326580000   -34.846412620000    14.003074004430
      Gh(N)           3.953773330000     0.980326580000   -34.846412620000    14.003074004430
      Gh(H)           3.567136740000     4.352185690000   -36.214992720000     1.007825032230
      Gh(H)          -0.944210980000     4.352185690000   -36.214992720000     1.007825032230
      Gh(H)          -0.944210980000    -2.391532530000   -33.477832520000     1.007825032230
      Gh(H)           3.567136740000    -2.391532530000   -33.477832520000     1.007825032230
      Gh(C)           2.622925760000     2.940979740000   -35.698953370000    12.000000000000
      Gh(C)           0.000000000000     2.940979740000   -35.698953370000    12.000000000000
      Gh(C)           0.000000000000    -0.980326580000   -33.993871870000    12.000000000000
      Gh(C)           2.622925760000    -0.980326580000   -33.993871870000    12.000000000000

  Running in c1 symmetry.

  Rotational constants: A =      0.04760  B =      0.00061  C =      0.00061 [cm^-1]
  Rotational constants: A =   1426.86468  B =     18.41605  C =     18.36244 [MHz]
  Nuclear repulsion =  212.551731110485349

  Charge       = 0
  Multiplicity = 1
  Electrons    = 42
  Nalpha       = 21
  Nbeta        = 21

  ==> Algorithm <==

  SCF Algorithm Type is DF.
  DIIS enabled.
  MOM disabled.
  Fractional occupation disabled.
  Guess Type is SAD.
  Energy threshold   = 1.00e-10
  Density threshold  = 1.00e-10
  Integral threshold = 1.00e-12

  ==> Primary Basis <==

  Basis Set: AUG-CC-PVDZ
    Blend: AUG-CC-PVDZ
    Number of shells: 148
    Number of basis functions: 348
    Number of Cartesian functions: 372
    Spherical Harmonics?: true
    Max angular momentum: 2

   => Loading Basis Set <=

    Name: (AUG-CC-PVDZ AUX)
    Role: JKFIT
    Keyword: DF_BASIS_SCF
    atoms 1-2, 11-12  entry N          line   212 file /storage/home/hhive1/csargent30/data/miniconda3/envs/psi4/share/psi4/basis/aug-cc-pvdz-jkfit.gbs 
    atoms 3-6, 13-16  entry H          line    70 file /storage/home/hhive1/csargent30/data/miniconda3/envs/psi4/share/psi4/basis/aug-cc-pvdz-jkfit.gbs 
    atoms 7-10, 17-20 entry C          line   154 file /storage/home/hhive1/csargent30/data/miniconda3/envs/psi4/share/psi4/basis/aug-cc-pvdz-jkfit.gbs 

  ==> Integral Setup <==

  ==> DiskDFJK: Density-Fitted J/K Matrices <==

    J tasked:                  Yes
    K tasked:                  Yes
    wK tasked:                  No
    OpenMP threads:              2
    Integrals threads:           2
    Memory [MiB]:             5006
    Algorithm:                Core
    Integral Cache:           LOAD
    Schwarz Cutoff:          1E-12
    Fitting Condition:       1E-10

   => Auxiliary Basis Set <=

  Basis Set: (AUG-CC-PVDZ AUX)
    Blend: AUG-CC-PVDZ-JKFIT
    Number of shells: 432
    Number of basis functions: 1288
    Number of Cartesian functions: 1492
    Spherical Harmonics?: true
    Max angular momentum: 3

  Minimum eigenvalue in the overlap matrix is 9.4898245907E-06.
  Reciprocal condition number of the overlap matrix is 7.4017520477E-07.
    Using symmetric orthogonalization.

  ==> Pre-Iterations <==

  SCF Guess: Superposition of Atomic Densities via on-the-fly atomic UHF (no occupation information).

   -------------------------
    Irrep   Nso     Nmo    
   -------------------------
     A        348     348 
   -------------------------
    Total     348     348
   -------------------------

  ==> Iterations <==

                           Total Energy        Delta E     RMS |[F,P]|

   @DF-RHF iter SAD:  -262.32523125830465   -2.62325e+02   0.00000e+00 
   @DF-RHF iter   1:  -262.53940798170402   -2.14177e-01   1.11985e-03 DIIS
   @DF-RHF iter   2:  -262.62878837450444   -8.93804e-02   4.10664e-04 DIIS
   @DF-RHF iter   3:  -262.63862291910658   -9.83454e-03   1.28248e-04 DIIS
   @DF-RHF iter   4:  -262.63984767237798   -1.22475e-03   3.77599e-05 DIIS
   @DF-RHF iter   5:  -262.63993727283923   -8.96005e-05   7.55558e-06 DIIS
   @DF-RHF iter   6:  -262.63994382309914   -6.55026e-06   2.45264e-06 DIIS
   @DF-RHF iter   7:  -262.63994477547260   -9.52373e-07   6.40130e-07 DIIS
   @DF-RHF iter   8:  -262.63994484936114   -7.38885e-08   9.91693e-08 DIIS
   @DF-RHF iter   9:  -262.63994485134583   -1.98469e-09   1.88228e-08 DIIS
   @DF-RHF iter  10:  -262.63994485141689   -7.10543e-11   3.19151e-09 DIIS
   @DF-RHF iter  11:  -262.63994485141961   -2.72848e-12   5.22318e-10 DIIS
   @DF-RHF iter  12:  -262.63994485141950    1.13687e-13   9.54358e-11 DIIS
  Energy and wave function converged.


  ==> Post-Iterations <==

    Orbital Energies [Eh]
    ---------------------

    Doubly Occupied:                                                      

       1A    -15.598072     2A    -15.598053     3A    -11.274239  
       4A    -11.274194     5A    -11.272975     6A    -11.272969  
       7A     -1.313347     8A     -1.224176     9A     -1.076803  
      10A     -0.922662    11A     -0.919282    12A     -0.760637  
      13A     -0.738402    14A     -0.706214    15A     -0.647687  
      16A     -0.580711    17A     -0.574369    18A     -0.497113  
      19A     -0.434288    20A     -0.415855    21A     -0.359924  

    Virtual:                                                              

      22A      0.022368    23A      0.034497    24A      0.039444  
      25A      0.040738    26A      0.041118    27A      0.048383  
      28A      0.058591    29A      0.058790    30A      0.067113  
      31A      0.079611    32A      0.084983    33A      0.099419  
      34A      0.100948    35A      0.103931    36A      0.108445  
      37A      0.108789    38A      0.114201    39A      0.114951  
      40A      0.122429    41A      0.123776    42A      0.125322  
      43A      0.125523    44A      0.128661    45A      0.130874  
      46A      0.132889    47A      0.134087    48A      0.152042  
      49A      0.152964    50A      0.158199    51A      0.159277  
      52A      0.161084    53A      0.161326    54A      0.163914  
      55A      0.175179    56A      0.176682    57A      0.186918  
      58A      0.197735    59A      0.203834    60A      0.203908  
      61A      0.206595    62A      0.212538    63A      0.222315  
      64A      0.233546    65A      0.239373    66A      0.250517  
      67A      0.255153    68A      0.267756    69A      0.270711  
      70A      0.278057    71A      0.287812    72A      0.293207  
      73A      0.295748    74A      0.302256    75A      0.314832  
      76A      0.320457    77A      0.320573    78A      0.328092  
      79A      0.331233    80A      0.344054    81A      0.355428  
      82A      0.357908    83A      0.364661    84A      0.380433  
      85A      0.382582    86A      0.385567    87A      0.398891  
      88A      0.401205    89A      0.409895    90A      0.419205  
      91A      0.424881    92A      0.425453    93A      0.433925  
      94A      0.437212    95A      0.441865    96A      0.452092  
      97A      0.460588    98A      0.461036    99A      0.471483  
     100A      0.476018   101A      0.478752   102A      0.492140  
     103A      0.504862   104A      0.507755   105A      0.514914  
     106A      0.523700   107A      0.524547   108A      0.528668  
     109A      0.535664   110A      0.554577   111A      0.557777  
     112A      0.561445   113A      0.564427   114A      0.570535  
     115A      0.581838   116A      0.587535   117A      0.591506  
     118A      0.593799   119A      0.595944   120A      0.608929  
     121A      0.615072   122A      0.620091   123A      0.636296  
     124A      0.643517   125A      0.644321   126A      0.649287  
     127A      0.651422   128A      0.679346   129A      0.685136  
     130A      0.685248   131A      0.687758   132A      0.689932  
     133A      0.690342   134A      0.694828   135A      0.703829  
     136A      0.719822   137A      0.728323   138A      0.746558  
     139A      0.746719   140A      0.754817   141A      0.766965  
     142A      0.775613   143A      0.781406   144A      0.793564  
     145A      0.799815   146A      0.802710   147A      0.811026  
     148A      0.811910   149A      0.819016   150A      0.824684  
     151A      0.831071   152A      0.847513   153A      0.847993  
     154A      0.849117   155A      0.868538   156A      0.880544  
     157A      0.886410   158A      0.888081   159A      0.894682  
     160A      0.906035   161A      0.929046   162A      0.929272  
     163A      0.939466   164A      0.947623   165A      0.949307  
     166A      0.970711   167A      0.976866   168A      0.986568  
     169A      0.996652   170A      0.998908   171A      1.013015  
     172A      1.032351   173A      1.033370   174A      1.046861  
     175A      1.051194   176A      1.076196   177A      1.089381  
     178A      1.090209   179A      1.100445   180A      1.122199  
     181A      1.124044   182A      1.130594   183A      1.134362  
     184A      1.140197   185A      1.158740   186A      1.168520  
     187A      1.170608   188A      1.173565   189A      1.192139  
     190A      1.193172   191A      1.200403   192A      1.222249  
     193A      1.235416   194A      1.238804   195A      1.250959  
     196A      1.307488   197A      1.309673   198A      1.318192  
     199A      1.326345   200A      1.329542   201A      1.331148  
     202A      1.346738   203A      1.389146   204A      1.414282  
     205A      1.448321   206A      1.451526   207A      1.455391  
     208A      1.479065   209A      1.486137   210A      1.487137  
     211A      1.488075   212A      1.499211   213A      1.502846  
     214A      1.518252   215A      1.572686   216A      1.574192  
     217A      1.587836   218A      1.635982   219A      1.640505  
     220A      1.648219   221A      1.659173   222A      1.676552  
     223A      1.697999   224A      1.716991   225A      1.746597  
     226A      1.755104   227A      1.783762   228A      1.815727  
     229A      1.893323   230A      1.916137   231A      1.964829  
     232A      1.987674   233A      2.031202   234A      2.070160  
     235A      2.091548   236A      2.101028   237A      2.102698  
     238A      2.119377   239A      2.142953   240A      2.156610  
     241A      2.159123   242A      2.163355   243A      2.190488  
     244A      2.193301   245A      2.194794   246A      2.200380  
     247A      2.202410   248A      2.227626   249A      2.234708  
     250A      2.241137   251A      2.249594   252A      2.309949  
     253A      2.312761   254A      2.319480   255A      2.355229  
     256A      2.384739   257A      2.419143   258A      2.430957  
     259A      2.435347   260A      2.438100   261A      2.438977  
     262A      2.472610   263A      2.486658   264A      2.498255  
     265A      2.519379   266A      2.522395   267A      2.525001  
     268A      2.545929   269A      2.568261   270A      2.584766  
     271A      2.592306   272A      2.606266   273A      2.625907  
     274A      2.665224   275A      2.675409   276A      2.686395  
     277A      2.713985   278A      2.716832   279A      2.718591  
     280A      2.726585   281A      2.767868   282A      2.844014  
     283A      2.865761   284A      2.903971   285A      2.939196  
     286A      2.947161   287A      2.955685   288A      2.973275  
     289A      3.001855   290A      3.017872   291A      3.032186  
     292A      3.058265   293A      3.065164   294A      3.094137  
     295A      3.113804   296A      3.220316   297A      3.245663  
     298A      3.255980   299A      3.284880   300A      3.289616  
     301A      3.321896   302A      3.337676   303A      3.340422  
     304A      3.348593   305A      3.351317   306A      3.366140  
     307A      3.412565   308A      3.413367   309A      3.470721  
     310A      3.501920   311A      3.514920   312A      3.521329  
     313A      3.590655   314A      3.604403   315A      3.605610  
     316A      3.627769   317A      3.700450   318A      3.818890  
     319A      3.830654   320A      3.940935   321A      3.969062  
     322A      3.977236   323A      4.011369   324A      4.194724  
     325A      4.242216   326A      4.253485   327A      4.441955  
     328A      4.546795   329A      4.579243   330A      4.867605  
     331A      4.976110   332A      5.057818   333A      5.261678  
     334A      5.316506   335A      5.630164   336A      5.691290  
     337A      5.827114   338A      5.952599   339A      6.283794  
     340A      6.306856   341A      6.453733   342A      6.631167  
     343A     18.125683   344A     18.207945   345A     19.017541  
     346A     19.342966   347A     25.287028   348A     25.374747  

    Final Occupation by Irrep:
              A 
    DOCC [    21 ]

  @DF-RHF Final Energy:  -262.63994485141950

   => Energetics <=

    Nuclear Repulsion Energy =            212.5517311104853491
    One-Electron Energy =                -775.4594096324830161
    Two-Electron Energy =                 300.2677336705781954
    Total Energy =                       -262.6399448514195001

Computation Completed


Properties will be evaluated at   0.000000,   0.000000,   0.000000 [a0]

Properties computed using the SCF density matrix

  Nuclear Dipole Moment: [e a0]
     X:    55.0814      Y:    41.1737      Z:    17.9034

  Electronic Dipole Moment: [e a0]
     X:   -55.0814      Y:   -41.1737      Z:   -17.9034

  Dipole Moment: [e a0]
     X:     0.0000      Y:    -0.0000      Z:     0.0000     Total:     0.0000

  Dipole Moment: [D]
     X:     0.0000      Y:    -0.0000      Z:     0.0000     Total:     0.0000


*** tstop() called on atl1-1-01-013-9-r.pace.gatech.edu at Mon Nov 29 16:11:07 2021
Module time:
	user time   =      16.90 seconds =       0.28 minutes
	system time =       0.50 seconds =       0.01 minutes
	total time  =         10 seconds =       0.17 minutes
Total time:
	user time   =      43.31 seconds =       0.72 minutes
	system time =       1.43 seconds =       0.02 minutes
	total time  =         24 seconds =       0.40 minutes

  //>>>>>>>>>>>>>>>>>>>>>>>>>>>>>>>>>>>//
  //            Monomer B HF           //
  //<<<<<<<<<<<<<<<<<<<<<<<<<<<<<<<<<<<//


*** tstart() called on atl1-1-01-013-9-r.pace.gatech.edu
*** at Mon Nov 29 16:11:07 2021

   => Loading Basis Set <=

    Name: AUG-CC-PVDZ
    Role: ORBITAL
    Keyword: BASIS
    atoms 1-2, 11-12  entry N          line   218 file /storage/home/hhive1/csargent30/data/miniconda3/envs/psi4/share/psi4/basis/aug-cc-pvdz.gbs 
    atoms 3-6, 13-16  entry H          line    40 file /storage/home/hhive1/csargent30/data/miniconda3/envs/psi4/share/psi4/basis/aug-cc-pvdz.gbs 
    atoms 7-10, 17-20 entry C          line   182 file /storage/home/hhive1/csargent30/data/miniconda3/envs/psi4/share/psi4/basis/aug-cc-pvdz.gbs 


         ---------------------------------------------------------
                                   SCF
               by Justin Turney, Rob Parrish, Andy Simmonett
                          and Daniel G. A. Smith
                              RHF Reference
                        2 Threads,   6675 MiB Core
         ---------------------------------------------------------

  ==> Geometry <==

    Molecular point group: c1
    Full point group: C1

    Geometry (in Bohr), charge = 0, multiplicity = 1:

       Center              X                  Y                   Z               Mass       
    ------------   -----------------  -----------------  -----------------  -----------------
      Gh(N)          -1.330847580000     0.980326580000     0.426270370000    14.003074004430
      Gh(N)           3.953773330000     0.980326580000     0.426270370000    14.003074004430
      Gh(H)           3.567136740000     4.352185690000    -0.942309730000     1.007825032230
      Gh(H)          -0.944210980000     4.352185690000    -0.942309730000     1.007825032230
      Gh(H)          -0.944210980000    -2.391532530000     1.794850470000     1.007825032230
      Gh(H)           3.567136740000    -2.391532530000     1.794850470000     1.007825032230
      Gh(C)           2.622925760000     2.940979740000    -0.426270370000    12.000000000000
      Gh(C)           0.000000000000     2.940979740000    -0.426270370000    12.000000000000
      Gh(C)           0.000000000000    -0.980326580000     1.278811120000    12.000000000000
      Gh(C)           2.622925760000    -0.980326580000     1.278811120000    12.000000000000
         N           -1.330847580000     0.980326580000   -34.846412620000    14.003074004430
         N            3.953773330000     0.980326580000   -34.846412620000    14.003074004430
         H            3.567136740000     4.352185690000   -36.214992720000     1.007825032230
         H           -0.944210980000     4.352185690000   -36.214992720000     1.007825032230
         H           -0.944210980000    -2.391532530000   -33.477832520000     1.007825032230
         H            3.567136740000    -2.391532530000   -33.477832520000     1.007825032230
         C            2.622925760000     2.940979740000   -35.698953370000    12.000000000000
         C            0.000000000000     2.940979740000   -35.698953370000    12.000000000000
         C            0.000000000000    -0.980326580000   -33.993871870000    12.000000000000
         C            2.622925760000    -0.980326580000   -33.993871870000    12.000000000000

  Running in c1 symmetry.

  Rotational constants: A =      0.04760  B =      0.00061  C =      0.00061 [cm^-1]
  Rotational constants: A =   1426.86468  B =     18.41605  C =     18.36244 [MHz]
  Nuclear repulsion =  212.551731042300531

  Charge       = 0
  Multiplicity = 1
  Electrons    = 42
  Nalpha       = 21
  Nbeta        = 21

  ==> Algorithm <==

  SCF Algorithm Type is DF.
  DIIS enabled.
  MOM disabled.
  Fractional occupation disabled.
  Guess Type is SAD.
  Energy threshold   = 1.00e-10
  Density threshold  = 1.00e-10
  Integral threshold = 1.00e-12

  ==> Primary Basis <==

  Basis Set: AUG-CC-PVDZ
    Blend: AUG-CC-PVDZ
    Number of shells: 148
    Number of basis functions: 348
    Number of Cartesian functions: 372
    Spherical Harmonics?: true
    Max angular momentum: 2

   => Loading Basis Set <=

    Name: (AUG-CC-PVDZ AUX)
    Role: JKFIT
    Keyword: DF_BASIS_SCF
    atoms 1-2, 11-12  entry N          line   212 file /storage/home/hhive1/csargent30/data/miniconda3/envs/psi4/share/psi4/basis/aug-cc-pvdz-jkfit.gbs 
    atoms 3-6, 13-16  entry H          line    70 file /storage/home/hhive1/csargent30/data/miniconda3/envs/psi4/share/psi4/basis/aug-cc-pvdz-jkfit.gbs 
    atoms 7-10, 17-20 entry C          line   154 file /storage/home/hhive1/csargent30/data/miniconda3/envs/psi4/share/psi4/basis/aug-cc-pvdz-jkfit.gbs 

  ==> Integral Setup <==

  ==> DiskDFJK: Density-Fitted J/K Matrices <==

    J tasked:                  Yes
    K tasked:                  Yes
    wK tasked:                  No
    OpenMP threads:              2
    Integrals threads:           2
    Memory [MiB]:             5006
    Algorithm:                Core
    Integral Cache:           LOAD
    Schwarz Cutoff:          1E-12
    Fitting Condition:       1E-10

   => Auxiliary Basis Set <=

  Basis Set: (AUG-CC-PVDZ AUX)
    Blend: AUG-CC-PVDZ-JKFIT
    Number of shells: 432
    Number of basis functions: 1288
    Number of Cartesian functions: 1492
    Spherical Harmonics?: true
    Max angular momentum: 3

  Minimum eigenvalue in the overlap matrix is 9.4898245907E-06.
  Reciprocal condition number of the overlap matrix is 7.4017520477E-07.
    Using symmetric orthogonalization.

  ==> Pre-Iterations <==

  SCF Guess: Superposition of Atomic Densities via on-the-fly atomic UHF (no occupation information).

   -------------------------
    Irrep   Nso     Nmo    
   -------------------------
     A        348     348 
   -------------------------
    Total     348     348
   -------------------------

  ==> Iterations <==

                           Total Energy        Delta E     RMS |[F,P]|

   @DF-RHF iter SAD:  -262.32523125145661   -2.62325e+02   0.00000e+00 
   @DF-RHF iter   1:  -262.53940798097960   -2.14177e-01   1.11985e-03 DIIS
   @DF-RHF iter   2:  -262.62878837365230   -8.93804e-02   4.10664e-04 DIIS
   @DF-RHF iter   3:  -262.63862291820385   -9.83454e-03   1.28248e-04 DIIS
   @DF-RHF iter   4:  -262.63984767147497   -1.22475e-03   3.77599e-05 DIIS
   @DF-RHF iter   5:  -262.63993727193798   -8.96005e-05   7.55558e-06 DIIS
   @DF-RHF iter   6:  -262.63994382219727   -6.55026e-06   2.45264e-06 DIIS
   @DF-RHF iter   7:  -262.63994477457112   -9.52374e-07   6.40130e-07 DIIS
   @DF-RHF iter   8:  -262.63994484845881   -7.38877e-08   9.91693e-08 DIIS
   @DF-RHF iter   9:  -262.63994485044441   -1.98560e-09   1.88228e-08 DIIS
   @DF-RHF iter  10:  -262.63994485051501   -7.05995e-11   3.19151e-09 DIIS
   @DF-RHF iter  11:  -262.63994485051802   -3.01270e-12   5.22317e-10 DIIS
   @DF-RHF iter  12:  -262.63994485051785    1.70530e-13   9.54355e-11 DIIS
  Energy and wave function converged.


  ==> Post-Iterations <==

    Orbital Energies [Eh]
    ---------------------

    Doubly Occupied:                                                      

       1A    -15.598072     2A    -15.598053     3A    -11.274239  
       4A    -11.274194     5A    -11.272975     6A    -11.272969  
       7A     -1.313347     8A     -1.224176     9A     -1.076803  
      10A     -0.922662    11A     -0.919282    12A     -0.760637  
      13A     -0.738402    14A     -0.706214    15A     -0.647687  
      16A     -0.580711    17A     -0.574369    18A     -0.497113  
      19A     -0.434288    20A     -0.415855    21A     -0.359924  

    Virtual:                                                              

      22A      0.022368    23A      0.034497    24A      0.039444  
      25A      0.040738    26A      0.041118    27A      0.048383  
      28A      0.058591    29A      0.058790    30A      0.067113  
      31A      0.079611    32A      0.084983    33A      0.099419  
      34A      0.100948    35A      0.103931    36A      0.108445  
      37A      0.108789    38A      0.114201    39A      0.114951  
      40A      0.122429    41A      0.123776    42A      0.125322  
      43A      0.125523    44A      0.128661    45A      0.130874  
      46A      0.132889    47A      0.134087    48A      0.152042  
      49A      0.152964    50A      0.158199    51A      0.159277  
      52A      0.161084    53A      0.161326    54A      0.163914  
      55A      0.175179    56A      0.176682    57A      0.186918  
      58A      0.197735    59A      0.203834    60A      0.203908  
      61A      0.206595    62A      0.212538    63A      0.222315  
      64A      0.233546    65A      0.239373    66A      0.250517  
      67A      0.255153    68A      0.267756    69A      0.270712  
      70A      0.278057    71A      0.287812    72A      0.293207  
      73A      0.295749    74A      0.302256    75A      0.314832  
      76A      0.320457    77A      0.320573    78A      0.328092  
      79A      0.331233    80A      0.344054    81A      0.355428  
      82A      0.357908    83A      0.364661    84A      0.380433  
      85A      0.382583    86A      0.385567    87A      0.398891  
      88A      0.401205    89A      0.409895    90A      0.419205  
      91A      0.424881    92A      0.425453    93A      0.433925  
      94A      0.437212    95A      0.441865    96A      0.452092  
      97A      0.460588    98A      0.461036    99A      0.471483  
     100A      0.476018   101A      0.478752   102A      0.492140  
     103A      0.504862   104A      0.507755   105A      0.514914  
     106A      0.523700   107A      0.524547   108A      0.528668  
     109A      0.535664   110A      0.554577   111A      0.557777  
     112A      0.561445   113A      0.564427   114A      0.570535  
     115A      0.581838   116A      0.587535   117A      0.591506  
     118A      0.593799   119A      0.595944   120A      0.608929  
     121A      0.615072   122A      0.620091   123A      0.636296  
     124A      0.643517   125A      0.644321   126A      0.649287  
     127A      0.651422   128A      0.679346   129A      0.685136  
     130A      0.685248   131A      0.687758   132A      0.689932  
     133A      0.690342   134A      0.694828   135A      0.703829  
     136A      0.719822   137A      0.728323   138A      0.746558  
     139A      0.746719   140A      0.754817   141A      0.766965  
     142A      0.775613   143A      0.781406   144A      0.793564  
     145A      0.799815   146A      0.802710   147A      0.811026  
     148A      0.811910   149A      0.819016   150A      0.824684  
     151A      0.831071   152A      0.847513   153A      0.847993  
     154A      0.849117   155A      0.868538   156A      0.880544  
     157A      0.886410   158A      0.888081   159A      0.894682  
     160A      0.906035   161A      0.929046   162A      0.929272  
     163A      0.939466   164A      0.947623   165A      0.949307  
     166A      0.970711   167A      0.976866   168A      0.986568  
     169A      0.996652   170A      0.998908   171A      1.013015  
     172A      1.032351   173A      1.033370   174A      1.046861  
     175A      1.051194   176A      1.076196   177A      1.089381  
     178A      1.090209   179A      1.100445   180A      1.122199  
     181A      1.124044   182A      1.130594   183A      1.134362  
     184A      1.140197   185A      1.158740   186A      1.168520  
     187A      1.170608   188A      1.173565   189A      1.192139  
     190A      1.193172   191A      1.200403   192A      1.222249  
     193A      1.235416   194A      1.238804   195A      1.250959  
     196A      1.307488   197A      1.309674   198A      1.318192  
     199A      1.326345   200A      1.329542   201A      1.331148  
     202A      1.346738   203A      1.389146   204A      1.414282  
     205A      1.448321   206A      1.451526   207A      1.455391  
     208A      1.479065   209A      1.486137   210A      1.487137  
     211A      1.488075   212A      1.499211   213A      1.502846  
     214A      1.518252   215A      1.572686   216A      1.574192  
     217A      1.587836   218A      1.635982   219A      1.640505  
     220A      1.648219   221A      1.659173   222A      1.676552  
     223A      1.697999   224A      1.716991   225A      1.746597  
     226A      1.755104   227A      1.783762   228A      1.815727  
     229A      1.893323   230A      1.916137   231A      1.964829  
     232A      1.987674   233A      2.031202   234A      2.070160  
     235A      2.091548   236A      2.101028   237A      2.102698  
     238A      2.119377   239A      2.142953   240A      2.156610  
     241A      2.159123   242A      2.163355   243A      2.190488  
     244A      2.193301   245A      2.194794   246A      2.200380  
     247A      2.202410   248A      2.227626   249A      2.234708  
     250A      2.241137   251A      2.249594   252A      2.309949  
     253A      2.312761   254A      2.319480   255A      2.355229  
     256A      2.384739   257A      2.419143   258A      2.430957  
     259A      2.435347   260A      2.438100   261A      2.438977  
     262A      2.472610   263A      2.486658   264A      2.498255  
     265A      2.519379   266A      2.522395   267A      2.525001  
     268A      2.545929   269A      2.568261   270A      2.584766  
     271A      2.592306   272A      2.606266   273A      2.625907  
     274A      2.665224   275A      2.675409   276A      2.686395  
     277A      2.713985   278A      2.716832   279A      2.718591  
     280A      2.726585   281A      2.767868   282A      2.844014  
     283A      2.865761   284A      2.903971   285A      2.939196  
     286A      2.947161   287A      2.955685   288A      2.973275  
     289A      3.001855   290A      3.017872   291A      3.032186  
     292A      3.058265   293A      3.065164   294A      3.094137  
     295A      3.113804   296A      3.220316   297A      3.245663  
     298A      3.255980   299A      3.284880   300A      3.289616  
     301A      3.321896   302A      3.337676   303A      3.340422  
     304A      3.348593   305A      3.351317   306A      3.366140  
     307A      3.412565   308A      3.413367   309A      3.470721  
     310A      3.501920   311A      3.514920   312A      3.521329  
     313A      3.590655   314A      3.604403   315A      3.605610  
     316A      3.627769   317A      3.700450   318A      3.818890  
     319A      3.830654   320A      3.940935   321A      3.969062  
     322A      3.977236   323A      4.011369   324A      4.194724  
     325A      4.242216   326A      4.253485   327A      4.441955  
     328A      4.546795   329A      4.579243   330A      4.867605  
     331A      4.976110   332A      5.057818   333A      5.261678  
     334A      5.316506   335A      5.630164   336A      5.691290  
     337A      5.827114   338A      5.952599   339A      6.283794  
     340A      6.306856   341A      6.453733   342A      6.631167  
     343A     18.125683   344A     18.207945   345A     19.017541  
     346A     19.342966   347A     25.287028   348A     25.374747  

    Final Occupation by Irrep:
              A 
    DOCC [    21 ]

  @DF-RHF Final Energy:  -262.63994485051785

   => Energetics <=

    Nuclear Repulsion Energy =            212.5517310423005313
    One-Electron Energy =                -775.4594094950718954
    Two-Electron Energy =                 300.2677336022535428
    Total Energy =                       -262.6399448505178498

Computation Completed


Properties will be evaluated at   0.000000,   0.000000,   0.000000 [a0]

Properties computed using the SCF density matrix

  Nuclear Dipole Moment: [e a0]
     X:    55.0814      Y:    41.1737      Z: -1463.5493

  Electronic Dipole Moment: [e a0]
     X:   -55.0814      Y:   -41.1737      Z:  1463.5493

  Dipole Moment: [e a0]
     X:     0.0000      Y:     0.0000      Z:    -0.0000     Total:     0.0000

  Dipole Moment: [D]
     X:     0.0000      Y:     0.0000      Z:    -0.0000     Total:     0.0000


*** tstop() called on atl1-1-01-013-9-r.pace.gatech.edu at Mon Nov 29 16:11:16 2021
Module time:
	user time   =      17.05 seconds =       0.28 minutes
	system time =       0.54 seconds =       0.01 minutes
	total time  =          9 seconds =       0.15 minutes
Total time:
	user time   =      60.38 seconds =       1.01 minutes
	system time =       1.97 seconds =       0.03 minutes
	total time  =         33 seconds =       0.55 minutes
  Constructing Basis Sets for SAPT...

   => Loading Basis Set <=

    Name: (AUG-CC-PVDZ AUX)
    Role: RIFIT
    Keyword: DF_BASIS_SAPT
    atoms 1-2, 11-12  entry N          line   158 file /storage/home/hhive1/csargent30/data/miniconda3/envs/psi4/share/psi4/basis/aug-cc-pvdz-ri.gbs 
    atoms 3-6, 13-16  entry H          line    30 file /storage/home/hhive1/csargent30/data/miniconda3/envs/psi4/share/psi4/basis/aug-cc-pvdz-ri.gbs 
    atoms 7-10, 17-20 entry C          line   112 file /storage/home/hhive1/csargent30/data/miniconda3/envs/psi4/share/psi4/basis/aug-cc-pvdz-ri.gbs 


  //>>>>>>>>>>>>>>>>>>>>>>>>>>>>>>>>>>>//
  //               SAPT0               //
  //<<<<<<<<<<<<<<<<<<<<<<<<<<<<<<<<<<<//


*** tstart() called on atl1-1-01-013-9-r.pace.gatech.edu
*** at Mon Nov 29 16:11:16 2021

        SAPT0  
    Ed Hohenstein
     6 June 2009

      Orbital Information
  --------------------------
    NSO        =       348
    NMO        =       348
    NRI        =      1048
    NOCC A     =        21
    NOCC B     =        21
    FOCC A     =         6
    FOCC B     =         6
    NVIR A     =       327
    NVIR B     =       327

    Elst10,r            =     0.000000058617 [Eh]
    Exch10              =    -0.000000000000 [Eh]
    Exch10 (S^2)        =    -0.000000000000 [Eh]

    Iter     Energy [mEh]          dE [mEh]         Residual      Time [s]
       1      -0.00000074       0.000000737       0.009792046             0
       2      -0.00000066      -0.000000081       0.001982502             0
       3      -0.00000073       0.000000074       0.000718500             1
       4      -0.00000073       0.000000004       0.000430052             1
       5      -0.00000073      -0.000000004       0.000125583             2
       6      -0.00000073      -0.000000000       0.000034136             2
       7      -0.00000073       0.000000000       0.000010008             2
       8      -0.00000073      -0.000000000       0.000003547             3
       9      -0.00000073      -0.000000000       0.000001041             3
      10      -0.00000073       0.000000000       0.000000453             3

    CHF Iterations converged


    Iter     Energy [mEh]          dE [mEh]         Residual      Time [s]
       1      -0.00000074       0.000000737       0.009792047             1
       2      -0.00000066      -0.000000081       0.001982502             1
       3      -0.00000073       0.000000074       0.000718500             2
       4      -0.00000073       0.000000004       0.000430052             2
       5      -0.00000073      -0.000000004       0.000125583             2
       6      -0.00000073      -0.000000000       0.000034136             3
       7      -0.00000073       0.000000000       0.000010008             3
       8      -0.00000073      -0.000000000       0.000003547             4
       9      -0.00000073      -0.000000000       0.000001041             4
      10      -0.00000073       0.000000000       0.000000453             4

    CHF Iterations converged

    Ind20,r (A<-B)      =    -0.000000000730 [Eh]
    Ind20,r (B<-A)      =    -0.000000000730 [Eh]
    Ind20,r             =    -0.000000001460 [Eh]
    Exch-Ind20,r (A<-B) =     0.000000000000 [Eh]
    Exch-Ind20,r (B<-A) =     0.000000000000 [Eh]
    Exch-Ind20,r        =     0.000000000000 [Eh]
    Disp20              =    -0.000000721976 [Eh]
    Disp20 (SS)         =    -0.000000360988 [Eh]
    Disp20 (OS)         =    -0.000000360988 [Eh]
    Exch-Disp20         =     0.000000000000 [Eh]
    Exch-Disp20 (SS)    =     0.000000000000 [Eh]
    Exch-Disp20 (OS)    =     0.000000000000 [Eh]

    SAPT Results 
  --------------------------------------------------------------------------------------------------------
    Electrostatics                  0.00005862 [mEh]       0.00003678 [kcal/mol]       0.00015390 [kJ/mol]
      Elst10,r                      0.00005862 [mEh]       0.00003678 [kcal/mol]       0.00015390 [kJ/mol]

    Exchange                       -0.00000000 [mEh]      -0.00000000 [kcal/mol]      -0.00000000 [kJ/mol]
      Exch10                       -0.00000000 [mEh]      -0.00000000 [kcal/mol]      -0.00000000 [kJ/mol]
      Exch10(S^2)                  -0.00000000 [mEh]      -0.00000000 [kcal/mol]      -0.00000000 [kJ/mol]

    Induction                       0.00000630 [mEh]       0.00000396 [kcal/mol]       0.00001655 [kJ/mol]
      Ind20,r                      -0.00000146 [mEh]      -0.00000092 [kcal/mol]      -0.00000383 [kJ/mol]
      Exch-Ind20,r                  0.00000000 [mEh]       0.00000000 [kcal/mol]       0.00000000 [kJ/mol]
      delta HF,r (2)                0.00000776 [mEh]       0.00000487 [kcal/mol]       0.00002038 [kJ/mol]

    Dispersion                     -0.00072198 [mEh]      -0.00045305 [kcal/mol]      -0.00189555 [kJ/mol]
      Disp20                       -0.00072198 [mEh]      -0.00045305 [kcal/mol]      -0.00189555 [kJ/mol]
      Exch-Disp20                   0.00000000 [mEh]       0.00000000 [kcal/mol]       0.00000000 [kJ/mol]
      Disp20 (SS)                  -0.00036099 [mEh]      -0.00022652 [kcal/mol]      -0.00094777 [kJ/mol]
      Disp20 (OS)                  -0.00036099 [mEh]      -0.00022652 [kcal/mol]      -0.00094777 [kJ/mol]
      Exch-Disp20 (SS)              0.00000000 [mEh]       0.00000000 [kcal/mol]       0.00000000 [kJ/mol]
      Exch-Disp20 (OS)              0.00000000 [mEh]       0.00000000 [kcal/mol]       0.00000000 [kJ/mol]

  Total HF                          0.00006492 [mEh]       0.00004074 [kcal/mol]       0.00017045 [kJ/mol]
  Total SAPT0                      -0.00065706 [mEh]      -0.00041231 [kcal/mol]      -0.00172510 [kJ/mol]

  Special recipe for scaled SAPT0 (see Manual):
    Electrostatics sSAPT0           0.00005862 [mEh]       0.00003678 [kcal/mol]       0.00015390 [kJ/mol]
    Exchange sSAPT0                -0.00000000 [mEh]      -0.00000000 [kcal/mol]      -0.00000000 [kJ/mol]
    Induction sSAPT0                0.00000630 [mEh]       0.00000396 [kcal/mol]       0.00001655 [kJ/mol]
    Dispersion sSAPT0              -0.00072198 [mEh]      -0.00045305 [kcal/mol]      -0.00189555 [kJ/mol]
  Total sSAPT0                     -0.00065706 [mEh]      -0.00041231 [kcal/mol]      -0.00172510 [kJ/mol]
  --------------------------------------------------------------------------------------------------------

*** tstop() called on atl1-1-01-013-9-r.pace.gatech.edu at Mon Nov 29 16:11:51 2021
Module time:
	user time   =      39.44 seconds =       0.66 minutes
	system time =       8.87 seconds =       0.15 minutes
	total time  =         35 seconds =       0.58 minutes
Total time:
	user time   =     100.08 seconds =       1.67 minutes
	system time =      10.85 seconds =       0.18 minutes
	total time  =         68 seconds =       1.13 minutes


Warning! sapt0 does not have an associated derived wavefunction.The returned wavefunction is the dimer SCF wavefunction.


    Psi4 stopped on: Monday, 29 November 2021 04:11PM
    Psi4 wall time for execution: 0:01:08.95

*** Psi4 exiting successfully. Buy a developer a beer!
