
    -----------------------------------------------------------------------
          Psi4: An Open-Source Ab Initio Electronic Structure Package
                               Psi4 1.4.1 release

                         Git: Rev {HEAD} cd00f19


    D. G. A. Smith, L. A. Burns, A. C. Simmonett, R. M. Parrish,
    M. C. Schieber, R. Galvelis, P. Kraus, H. Kruse, R. Di Remigio,
    A. Alenaizan, A. M. James, S. Lehtola, J. P. Misiewicz, M. Scheurer,
    R. A. Shaw, J. B. Schriber, Y. Xie, Z. L. Glick, D. A. Sirianni,
    J. S. O'Brien, J. M. Waldrop, A. Kumar, E. G. Hohenstein,
    B. P. Pritchard, B. R. Brooks, H. F. Schaefer III, A. Yu. Sokolov,
    K. Patkowski, A. E. DePrince III, U. Bozkaya, R. A. King,
    F. A. Evangelista, J. M. Turney, T. D. Crawford, C. D. Sherrill,
    J. Chem. Phys. 152(18) 184108 (2020). https://doi.org/10.1063/5.0006002

                            Additional Code Authors
    E. T. Seidl, C. L. Janssen, E. F. Valeev, M. L. Leininger,
    J. F. Gonthier, R. M. Richard, H. R. McAlexander, M. Saitow, X. Wang,
    P. Verma, and M. H. Lechner

             Previous Authors, Complete List of Code Contributors,
                       and Citations for Specific Modules
    https://github.com/psi4/psi4/blob/master/codemeta.json
    https://github.com/psi4/psi4/graphs/contributors
    http://psicode.org/psi4manual/master/introduction.html#citing-psifour

    -----------------------------------------------------------------------


    Psi4 started on: Monday, 29 November 2021 04:10PM

    Process ID: 429237
    Host:       atl1-1-01-013-7-l.pace.gatech.edu
    PSIDATADIR: /storage/home/hhive1/csargent30/data/miniconda3/envs/psi4/share/psi4
    Memory:     500.0 MiB
    Threads:    2

  ==> Input File <==

--------------------------------------------------------------------------
# PSI4 file produced by CrystaLattE

# Generated from:               pyrazine.xyz
# Psithon input for N-mer:      2mer-0+249
# Number of atoms per monomer:  [10, 10]
# Number of replicas:           2
# COM priority:                 2.135832506710e-05
# Minimum COM separations:      19.073
# Separation priority:          4.201348748453e-05
# Minimum monomer separations:  15.222
# Cutoff priority:              1.460556329048e-06
# Nuclear repulsion energy:     474.19615878771504

memory 7 GB

molecule Dimer_0_249 {
  N           -1.33084758       0.98032658       0.42627037
  N            3.95377333       0.98032658       0.42627037
  H            3.56713674       4.35218569      -0.94230973
  H           -0.94421098       4.35218569      -0.94230973
  H           -0.94421098      -2.39153253       1.79485047
  H            3.56713674      -2.39153253       1.79485047
  C            2.62292576       2.94097974      -0.42627037
  C            0.00000000       2.94097974      -0.42627037
  C            0.00000000      -0.98032658       1.27881112
  C            2.62292576      -0.98032658       1.27881112
--
  N           -1.33084758     -32.18550076      14.53534357
  N            3.95377333     -32.18550076      14.53534357
  H            3.56713674     -28.81364165      13.16676347
  H           -0.94421098     -28.81364165      13.16676347
  H           -0.94421098     -35.55735987      15.90392367
  H            3.56713674     -35.55735987      15.90392367
  C            2.62292576     -30.22484760      13.68280282
  C            0.00000000     -30.22484760      13.68280282
  C            0.00000000     -34.14615392      15.38788432
  C            2.62292576     -34.14615392      15.38788432
units = au
no_com
no_reorient
}

set {
  e_convergence 10
  d_convergence 10
  scf_type df
  mp2_type df
  cc_type df
  freeze_core true
}

energy('sapt0/aug-cc-pvdz')

--------------------------------------------------------------------------

  Memory set to   6.519 GiB by Python driver.

Scratch directory: /tmp/

Scratch directory: /tmp/

  //>>>>>>>>>>>>>>>>>>>>>>>>>>>>>>>>>>>//
  //              Dimer HF             //
  //<<<<<<<<<<<<<<<<<<<<<<<<<<<<<<<<<<<//


*** tstart() called on atl1-1-01-013-7-l.pace.gatech.edu
*** at Mon Nov 29 16:10:44 2021

   => Loading Basis Set <=

    Name: AUG-CC-PVDZ
    Role: ORBITAL
    Keyword: BASIS
    atoms 1-2, 11-12  entry N          line   218 file /storage/home/hhive1/csargent30/data/miniconda3/envs/psi4/share/psi4/basis/aug-cc-pvdz.gbs
    atoms 3-6, 13-16  entry H          line    40 file /storage/home/hhive1/csargent30/data/miniconda3/envs/psi4/share/psi4/basis/aug-cc-pvdz.gbs
    atoms 7-10, 17-20 entry C          line   182 file /storage/home/hhive1/csargent30/data/miniconda3/envs/psi4/share/psi4/basis/aug-cc-pvdz.gbs


         ---------------------------------------------------------
                                   SCF
               by Justin Turney, Rob Parrish, Andy Simmonett
                          and Daniel G. A. Smith
                              RHF Reference
                        2 Threads,   6675 MiB Core
         ---------------------------------------------------------

  ==> Geometry <==

    Molecular point group: c1
    Full point group: C1

    Geometry (in Bohr), charge = 0, multiplicity = 1:

       Center              X                  Y                   Z               Mass
    ------------   -----------------  -----------------  -----------------  -----------------
         N           -1.330847580000     0.980326580000     0.426270370000    14.003074004430
         N            3.953773330000     0.980326580000     0.426270370000    14.003074004430
         H            3.567136740000     4.352185690000    -0.942309730000     1.007825032230
         H           -0.944210980000     4.352185690000    -0.942309730000     1.007825032230
         H           -0.944210980000    -2.391532530000     1.794850470000     1.007825032230
         H            3.567136740000    -2.391532530000     1.794850470000     1.007825032230
         C            2.622925760000     2.940979740000    -0.426270370000    12.000000000000
         C            0.000000000000     2.940979740000    -0.426270370000    12.000000000000
         C            0.000000000000    -0.980326580000     1.278811120000    12.000000000000
         C            2.622925760000    -0.980326580000     1.278811120000    12.000000000000
         N           -1.330847580000   -32.185500760000    14.535343570000    14.003074004430
         N            3.953773330000   -32.185500760000    14.535343570000    14.003074004430
         H            3.567136740000   -28.813641650000    13.166763470000     1.007825032230
         H           -0.944210980000   -28.813641650000    13.166763470000     1.007825032230
         H           -0.944210980000   -35.557359870000    15.903923670000     1.007825032230
         H            3.567136740000   -35.557359870000    15.903923670000     1.007825032230
         C            2.622925760000   -30.224847600000    13.682802820000    12.000000000000
         C            0.000000000000   -30.224847600000    13.682802820000    12.000000000000
         C            0.000000000000   -34.146153920000    15.387884320000    12.000000000000
         C            2.622925760000   -34.146153920000    15.387884320000    12.000000000000

  Running in c1 symmetry.

  Rotational constants: A =      0.07614  B =      0.00060  C =      0.00059 [cm^-1]
  Rotational constants: A =   2282.69195  B =     17.94328  C =     17.81742 [MHz]
  Nuclear repulsion =  474.196158713229693

  Charge       = 0
  Multiplicity = 1
  Electrons    = 84
  Nalpha       = 42
  Nbeta        = 42

  ==> Algorithm <==

  SCF Algorithm Type is DF.
  DIIS enabled.
  MOM disabled.
  Fractional occupation disabled.
  Guess Type is SAD.
  Energy threshold   = 1.00e-10
  Density threshold  = 1.00e-10
  Integral threshold = 1.00e-12

  ==> Primary Basis <==

  Basis Set: AUG-CC-PVDZ
    Blend: AUG-CC-PVDZ
    Number of shells: 148
    Number of basis functions: 348
    Number of Cartesian functions: 372
    Spherical Harmonics?: true
    Max angular momentum: 2

   => Loading Basis Set <=

    Name: (AUG-CC-PVDZ AUX)
    Role: JKFIT
    Keyword: DF_BASIS_SCF
    atoms 1-2, 11-12  entry N          line   212 file /storage/home/hhive1/csargent30/data/miniconda3/envs/psi4/share/psi4/basis/aug-cc-pvdz-jkfit.gbs
    atoms 3-6, 13-16  entry H          line    70 file /storage/home/hhive1/csargent30/data/miniconda3/envs/psi4/share/psi4/basis/aug-cc-pvdz-jkfit.gbs
    atoms 7-10, 17-20 entry C          line   154 file /storage/home/hhive1/csargent30/data/miniconda3/envs/psi4/share/psi4/basis/aug-cc-pvdz-jkfit.gbs

  ==> Integral Setup <==

  ==> DiskDFJK: Density-Fitted J/K Matrices <==

    J tasked:                  Yes
    K tasked:                  Yes
    wK tasked:                  No
    OpenMP threads:              2
    Integrals threads:           2
    Memory [MiB]:             5006
    Algorithm:                Core
    Integral Cache:           SAVE
    Schwarz Cutoff:          1E-12
    Fitting Condition:       1E-10

   => Auxiliary Basis Set <=

  Basis Set: (AUG-CC-PVDZ AUX)
    Blend: AUG-CC-PVDZ-JKFIT
    Number of shells: 432
    Number of basis functions: 1288
    Number of Cartesian functions: 1492
    Spherical Harmonics?: true
    Max angular momentum: 3

  Minimum eigenvalue in the overlap matrix is 9.4870721988E-06.
  Reciprocal condition number of the overlap matrix is 7.3996050654E-07.
    Using symmetric orthogonalization.

  ==> Pre-Iterations <==

  SCF Guess: Superposition of Atomic Densities via on-the-fly atomic UHF (no occupation information).

   -------------------------
    Irrep   Nso     Nmo
   -------------------------
     A        348     348
   -------------------------
    Total     348     348
   -------------------------

  ==> Iterations <==

                           Total Energy        Delta E     RMS |[F,P]|

   @DF-RHF iter SAD:  -524.65046251297110   -5.24650e+02   0.00000e+00
   @DF-RHF iter   1:  -525.07880533875141   -4.28343e-01   1.58373e-03 DIIS
   @DF-RHF iter   2:  -525.25756669803582   -1.78761e-01   5.80794e-04 DIIS
   @DF-RHF iter   3:  -525.27723720040115   -1.96705e-02   1.81379e-04 DIIS
   @DF-RHF iter   4:  -525.27968686895667   -2.44967e-03   5.34040e-05 DIIS
   @DF-RHF iter   5:  -525.27986609043660   -1.79221e-04   1.06853e-05 DIIS
   @DF-RHF iter   6:  -525.27987919150019   -1.31011e-05   3.46876e-06 DIIS
   @DF-RHF iter   7:  -525.27988109651051   -1.90501e-06   9.05407e-07 DIIS
   @DF-RHF iter   8:  -525.27988124431727   -1.47807e-07   1.40682e-07 DIIS
   @DF-RHF iter   9:  -525.27988124828585   -3.96858e-09   2.93499e-08 DIIS
   @DF-RHF iter  10:  -525.27988124842773   -1.41881e-10   1.30740e-08 DIIS
   @DF-RHF iter  11:  -525.27988124844353   -1.58025e-11   2.79879e-09 DIIS
   @DF-RHF iter  12:  -525.27988124844410   -5.68434e-13   4.45165e-10 DIIS
   @DF-RHF iter  13:  -525.27988124844455   -4.54747e-13   1.05082e-10 DIIS
   @DF-RHF iter  14:  -525.27988124844433    2.27374e-13   3.36982e-11 DIIS
  Energy and wave function converged.


  ==> Post-Iterations <==

    Orbital Energies [Eh]
    ---------------------

    Doubly Occupied:

       1A    -15.598271     2A    -15.598271     3A    -15.598252
       4A    -15.598252     5A    -11.274442     6A    -11.274442
       7A    -11.274394     8A    -11.274394     9A    -11.273182
      10A    -11.273182    11A    -11.273165    12A    -11.273165
      13A     -1.313547    14A     -1.313547    15A     -1.224375
      16A     -1.224375    17A     -1.077005    18A     -1.077005
      19A     -0.922864    20A     -0.922864    21A     -0.919485
      22A     -0.919485    23A     -0.760838    24A     -0.760838
      25A     -0.738605    26A     -0.738605    27A     -0.706415
      28A     -0.706415    29A     -0.647890    30A     -0.647890
      31A     -0.580913    32A     -0.580913    33A     -0.574569
      34A     -0.574569    35A     -0.497310    36A     -0.497310
      37A     -0.434486    38A     -0.434486    39A     -0.416055
      40A     -0.416055    41A     -0.360126    42A     -0.360126

    Virtual:

      43A      0.034263    44A      0.034287    45A      0.040478
      46A      0.040528    47A      0.048162    48A      0.048199
      49A      0.058351    50A      0.058403    51A      0.066912
      52A      0.066912    53A      0.099219    54A      0.099219
      55A      0.100734    56A      0.100735    57A      0.114005
      58A      0.114005    59A      0.114760    60A      0.114760
      61A      0.123538    62A      0.123599    63A      0.125127
      64A      0.125130    65A      0.128444    66A      0.128446
      67A      0.132684    68A      0.132684    69A      0.157888
      70A      0.158044    71A      0.160841    72A      0.160900
      73A      0.161066    74A      0.161158    75A      0.163669
      76A      0.163750    77A      0.174949    78A      0.174979
      79A      0.186721    80A      0.186721    81A      0.203701
      82A      0.203705    83A      0.212343    84A      0.212356
      85A      0.250324    86A      0.250324    87A      0.267562
      88A      0.267565    89A      0.277845    90A      0.277876
      91A      0.287620    92A      0.287620    93A      0.292998
      94A      0.293002    95A      0.295493    96A      0.295621
      97A      0.314624    98A      0.314625    99A      0.320257
     100A      0.320257   101A      0.355187   102A      0.355263
     103A      0.357702   104A      0.357703   105A      0.364459
     106A      0.364461   107A      0.382354   108A      0.382399
     109A      0.398661   110A      0.398698   111A      0.409669
     112A      0.409710   113A      0.425228   114A      0.425256
     115A      0.433717   116A      0.433717   117A      0.436934
     118A      0.437051   119A      0.451885   120A      0.451892
     121A      0.471273   122A      0.471291   123A      0.491935
     124A      0.491935   125A      0.504654   126A      0.504654
     127A      0.514712   128A      0.514712   129A      0.524339
     130A      0.524347   131A      0.528455   132A      0.528480
     133A      0.554372   134A      0.554375   135A      0.570326
     136A      0.570334   137A      0.587334   138A      0.587334
     139A      0.591306   140A      0.591310   141A      0.593598
     142A      0.593599   143A      0.608723   144A      0.608724
     145A      0.643317   146A      0.643318   147A      0.644102
     148A      0.644122   149A      0.684934   150A      0.684937
     151A      0.687557   152A      0.687557   153A      0.689721
     154A      0.689729   155A      0.690107   156A      0.690176
     157A      0.694617   158A      0.694622   159A      0.703597
     160A      0.703653   161A      0.746341   162A      0.746350
     163A      0.754611   164A      0.754611   165A      0.766766
     166A      0.766766   167A      0.781208   168A      0.781208
     169A      0.799604   170A      0.799610   171A      0.802505
     172A      0.802510   173A      0.818817   174A      0.818819
     175A      0.830872   176A      0.830872   177A      0.847308
     178A      0.847315   179A      0.880340   180A      0.880341
     181A      0.886205   182A      0.886205   183A      0.894482
     184A      0.894482   185A      0.929066   186A      0.929068
     187A      0.939260   188A      0.939274   189A      0.949094
     190A      0.949111   191A      0.996452   192A      0.996452
     193A      0.998710   194A      0.998710   195A      1.012818
     196A      1.012818   197A      1.033158   198A      1.033179
     199A      1.050992   200A      1.050992   201A      1.089183
     202A      1.089184   203A      1.100246   204A      1.100246
     205A      1.121979   206A      1.122012   207A      1.123844
     208A      1.123845   209A      1.134154   210A      1.134163
     211A      1.158529   212A      1.158546   213A      1.173363
     214A      1.173364   215A      1.235212   216A      1.235220
     217A      1.238600   218A      1.238600   219A      1.309466
     220A      1.309478   221A      1.330946   222A      1.330949
     223A      1.414076   224A      1.414081   225A      1.451326
     226A      1.451329   227A      1.485936   228A      1.485941
     229A      1.487875   230A      1.487876   231A      1.498997
     232A      1.499019   233A      1.502639   234A      1.502651
     235A      1.518045   236A      1.518046   237A      1.572485
     238A      1.572486   239A      1.573982   240A      1.573999
     241A      1.587624   242A      1.587645   243A      1.635775
     244A      1.635782   245A      1.640299   246A      1.640301
     247A      1.648008   248A      1.648027   249A      1.676349
     250A      1.676350   251A      1.716792   252A      1.716792
     253A      1.746396   254A      1.746396   255A      1.754902
     256A      1.754902   257A      1.783556   258A      1.783567
     259A      1.815525   260A      1.815525   261A      1.893120
     262A      1.893120   263A      1.915933   264A      1.915936
     265A      1.964625   266A      1.964625   267A      1.987474
     268A      1.987475   269A      2.030998   270A      2.031000
     271A      2.091344   272A      2.091348   273A      2.100820
     274A      2.100832   275A      2.142752   276A      2.142752
     277A      2.163153   278A      2.163153   279A      2.190284
     280A      2.190284   281A      2.193088   282A      2.193110
     283A      2.200175   284A      2.200177   285A      2.202206
     286A      2.202207   287A      2.227424   288A      2.227426
     289A      2.312558   290A      2.312560   291A      2.355022
     292A      2.355028   293A      2.430757   294A      2.430757
     295A      2.438776   296A      2.438776   297A      2.519176
     298A      2.519177   299A      2.522192   300A      2.522192
     301A      2.584568   302A      2.584569   303A      2.606066
     304A      2.606067   305A      2.665022   306A      2.665022
     307A      2.675211   308A      2.675211   309A      2.686193
     310A      2.686199   311A      2.713774   312A      2.713797
     313A      2.718388   314A      2.718389   315A      2.843815
     316A      2.843815   317A      2.865561   318A      2.865561
     319A      2.938993   320A      2.938996   321A      3.001651
     322A      3.001655   323A      3.017670   324A      3.017674
     325A      3.031984   326A      3.031989   327A      3.093930
     328A      3.093938   329A      3.220077   330A      3.220153
     331A      3.255776   332A      3.255777   333A      3.284675
     334A      3.284685   335A      3.365938   336A      3.365940
     337A      3.413159   338A      3.413166   339A      3.514718
     340A      3.514719   341A      3.590451   342A      3.590453
     343A      3.627567   344A      3.627569   345A      3.977027
     346A      3.977039   347A      4.253283   348A      4.253284

    Final Occupation by Irrep:
              A
    DOCC [    42 ]

  @DF-RHF Final Energy:  -525.27988124844433

   => Energetics <=

    Nuclear Repulsion Energy =            474.1961587132296927
    One-Electron Energy =               -1649.0873168469288430
    Two-Electron Energy =                 649.6112768852549380
    Total Energy =                       -525.2798812484443260

Computation Completed


Properties will be evaluated at   0.000000,   0.000000,   0.000000 [a0]

Properties computed using the SCF density matrix

  Nuclear Dipole Moment: [e a0]
     X:   110.1629      Y: -1310.6173      Z:   628.3878

  Electronic Dipole Moment: [e a0]
     X:  -110.1629      Y:  1310.6173      Z:  -628.3878

  Dipole Moment: [e a0]
     X:     0.0000      Y:     0.0000      Z:     0.0000     Total:     0.0000

  Dipole Moment: [D]
     X:     0.0000      Y:     0.0000      Z:     0.0000     Total:     0.0000


*** tstop() called on atl1-1-01-013-7-l.pace.gatech.edu at Mon Nov 29 16:10:59 2021
Module time:
	user time   =      26.25 seconds =       0.44 minutes
	system time =       0.95 seconds =       0.02 minutes
	total time  =         15 seconds =       0.25 minutes
Total time:
	user time   =      26.25 seconds =       0.44 minutes
	system time =       0.95 seconds =       0.02 minutes
	total time  =         15 seconds =       0.25 minutes

  //>>>>>>>>>>>>>>>>>>>>>>>>>>>>>>>>>>>//
  //            Monomer A HF           //
  //<<<<<<<<<<<<<<<<<<<<<<<<<<<<<<<<<<<//


*** tstart() called on atl1-1-01-013-7-l.pace.gatech.edu
*** at Mon Nov 29 16:10:59 2021

   => Loading Basis Set <=

    Name: AUG-CC-PVDZ
    Role: ORBITAL
    Keyword: BASIS
    atoms 1-2, 11-12  entry N          line   218 file /storage/home/hhive1/csargent30/data/miniconda3/envs/psi4/share/psi4/basis/aug-cc-pvdz.gbs
    atoms 3-6, 13-16  entry H          line    40 file /storage/home/hhive1/csargent30/data/miniconda3/envs/psi4/share/psi4/basis/aug-cc-pvdz.gbs
    atoms 7-10, 17-20 entry C          line   182 file /storage/home/hhive1/csargent30/data/miniconda3/envs/psi4/share/psi4/basis/aug-cc-pvdz.gbs


         ---------------------------------------------------------
                                   SCF
               by Justin Turney, Rob Parrish, Andy Simmonett
                          and Daniel G. A. Smith
                              RHF Reference
                        2 Threads,   6675 MiB Core
         ---------------------------------------------------------

  ==> Geometry <==

    Molecular point group: c1
    Full point group: C1

    Geometry (in Bohr), charge = 0, multiplicity = 1:

       Center              X                  Y                   Z               Mass
    ------------   -----------------  -----------------  -----------------  -----------------
         N           -1.330847580000     0.980326580000     0.426270370000    14.003074004430
         N            3.953773330000     0.980326580000     0.426270370000    14.003074004430
         H            3.567136740000     4.352185690000    -0.942309730000     1.007825032230
         H           -0.944210980000     4.352185690000    -0.942309730000     1.007825032230
         H           -0.944210980000    -2.391532530000     1.794850470000     1.007825032230
         H            3.567136740000    -2.391532530000     1.794850470000     1.007825032230
         C            2.622925760000     2.940979740000    -0.426270370000    12.000000000000
         C            0.000000000000     2.940979740000    -0.426270370000    12.000000000000
         C            0.000000000000    -0.980326580000     1.278811120000    12.000000000000
         C            2.622925760000    -0.980326580000     1.278811120000    12.000000000000
      Gh(N)          -1.330847580000   -32.185500760000    14.535343570000    14.003074004430
      Gh(N)           3.953773330000   -32.185500760000    14.535343570000    14.003074004430
      Gh(H)           3.567136740000   -28.813641650000    13.166763470000     1.007825032230
      Gh(H)          -0.944210980000   -28.813641650000    13.166763470000     1.007825032230
      Gh(H)          -0.944210980000   -35.557359870000    15.903923670000     1.007825032230
      Gh(H)           3.567136740000   -35.557359870000    15.903923670000     1.007825032230
      Gh(C)           2.622925760000   -30.224847600000    13.682802820000    12.000000000000
      Gh(C)           0.000000000000   -30.224847600000    13.682802820000    12.000000000000
      Gh(C)           0.000000000000   -34.146153920000    15.387884320000    12.000000000000
      Gh(C)           2.622925760000   -34.146153920000    15.387884320000    12.000000000000

  Running in c1 symmetry.

  Rotational constants: A =      0.07614  B =      0.00060  C =      0.00059 [cm^-1]
  Rotational constants: A =   2282.69195  B =     17.94328  C =     17.81742 [MHz]
  Nuclear repulsion =  212.551731110485349

  Charge       = 0
  Multiplicity = 1
  Electrons    = 42
  Nalpha       = 21
  Nbeta        = 21

  ==> Algorithm <==

  SCF Algorithm Type is DF.
  DIIS enabled.
  MOM disabled.
  Fractional occupation disabled.
  Guess Type is SAD.
  Energy threshold   = 1.00e-10
  Density threshold  = 1.00e-10
  Integral threshold = 1.00e-12

  ==> Primary Basis <==

  Basis Set: AUG-CC-PVDZ
    Blend: AUG-CC-PVDZ
    Number of shells: 148
    Number of basis functions: 348
    Number of Cartesian functions: 372
    Spherical Harmonics?: true
    Max angular momentum: 2

   => Loading Basis Set <=

    Name: (AUG-CC-PVDZ AUX)
    Role: JKFIT
    Keyword: DF_BASIS_SCF
    atoms 1-2, 11-12  entry N          line   212 file /storage/home/hhive1/csargent30/data/miniconda3/envs/psi4/share/psi4/basis/aug-cc-pvdz-jkfit.gbs
    atoms 3-6, 13-16  entry H          line    70 file /storage/home/hhive1/csargent30/data/miniconda3/envs/psi4/share/psi4/basis/aug-cc-pvdz-jkfit.gbs
    atoms 7-10, 17-20 entry C          line   154 file /storage/home/hhive1/csargent30/data/miniconda3/envs/psi4/share/psi4/basis/aug-cc-pvdz-jkfit.gbs

  ==> Integral Setup <==

  ==> DiskDFJK: Density-Fitted J/K Matrices <==

    J tasked:                  Yes
    K tasked:                  Yes
    wK tasked:                  No
    OpenMP threads:              2
    Integrals threads:           2
    Memory [MiB]:             5006
    Algorithm:                Core
    Integral Cache:           LOAD
    Schwarz Cutoff:          1E-12
    Fitting Condition:       1E-10

   => Auxiliary Basis Set <=

  Basis Set: (AUG-CC-PVDZ AUX)
    Blend: AUG-CC-PVDZ-JKFIT
    Number of shells: 432
    Number of basis functions: 1288
    Number of Cartesian functions: 1492
    Spherical Harmonics?: true
    Max angular momentum: 3

  Minimum eigenvalue in the overlap matrix is 9.4870721988E-06.
  Reciprocal condition number of the overlap matrix is 7.3996050654E-07.
    Using symmetric orthogonalization.

  ==> Pre-Iterations <==

  SCF Guess: Superposition of Atomic Densities via on-the-fly atomic UHF (no occupation information).

   -------------------------
    Irrep   Nso     Nmo
   -------------------------
     A        348     348
   -------------------------
    Total     348     348
   -------------------------

  ==> Iterations <==

                           Total Energy        Delta E     RMS |[F,P]|

   @DF-RHF iter SAD:  -262.32523126159998   -2.62325e+02   0.00000e+00
   @DF-RHF iter   1:  -262.53940798157453   -2.14177e-01   1.11985e-03 DIIS
   @DF-RHF iter   2:  -262.62878837447283   -8.93804e-02   4.10664e-04 DIIS
   @DF-RHF iter   3:  -262.63862291899238   -9.83454e-03   1.28248e-04 DIIS
   @DF-RHF iter   4:  -262.63984767224838   -1.22475e-03   3.77599e-05 DIIS
   @DF-RHF iter   5:  -262.63993727271077   -8.96005e-05   7.55558e-06 DIIS
   @DF-RHF iter   6:  -262.63994382297136   -6.55026e-06   2.45264e-06 DIIS
   @DF-RHF iter   7:  -262.63994477534391   -9.52373e-07   6.40130e-07 DIIS
   @DF-RHF iter   8:  -262.63994484923273   -7.38888e-08   9.91693e-08 DIIS
   @DF-RHF iter   9:  -262.63994485121884   -1.98611e-09   1.88228e-08 DIIS
   @DF-RHF iter  10:  -262.63994485128887   -7.00311e-11   3.19151e-09 DIIS
   @DF-RHF iter  11:  -262.63994485129126   -2.38742e-12   5.22318e-10 DIIS
   @DF-RHF iter  12:  -262.63994485129172   -4.54747e-13   9.54367e-11 DIIS
  Energy and wave function converged.


  ==> Post-Iterations <==

    Orbital Energies [Eh]
    ---------------------

    Doubly Occupied:

       1A    -15.598072     2A    -15.598053     3A    -11.274239
       4A    -11.274194     5A    -11.272975     6A    -11.272969
       7A     -1.313347     8A     -1.224176     9A     -1.076803
      10A     -0.922662    11A     -0.919282    12A     -0.760637
      13A     -0.738402    14A     -0.706214    15A     -0.647687
      16A     -0.580711    17A     -0.574369    18A     -0.497113
      19A     -0.434288    20A     -0.415855    21A     -0.359924

    Virtual:

      22A      0.022151    23A      0.034497    24A      0.039200
      25A      0.040739    26A      0.040909    27A      0.048383
      28A      0.058547    29A      0.058606    30A      0.067113
      31A      0.079409    32A      0.084744    33A      0.099419
      34A      0.100948    35A      0.103705    36A      0.108247
      37A      0.108580    38A      0.114201    39A      0.114951
      40A      0.122217    41A      0.123776    42A      0.125286
      43A      0.125324    44A      0.128661    45A      0.130672
      46A      0.132889    47A      0.133854    48A      0.151815
      49A      0.152753    50A      0.158199    51A      0.159071
      52A      0.161084    53A      0.161326    54A      0.163914
      55A      0.175179    56A      0.176452    57A      0.186918
      58A      0.197531    59A      0.203620    60A      0.203909
      61A      0.206388    62A      0.212538    63A      0.222092
      64A      0.233340    65A      0.239165    66A      0.250517
      67A      0.254952    68A      0.267756    69A      0.270503
      70A      0.278057    71A      0.287812    72A      0.293207
      73A      0.295749    74A      0.302029    75A      0.314832
      76A      0.320359    77A      0.320457    78A      0.327876
      79A      0.331022    80A      0.343848    81A      0.355428
      82A      0.357908    83A      0.364661    84A      0.380217
      85A      0.382583    86A      0.385356    87A      0.398891
      88A      0.400995    89A      0.409895    90A      0.418989
      91A      0.424667    92A      0.425453    93A      0.433925
      94A      0.437212    95A      0.441652    96A      0.452092
      97A      0.460378    98A      0.460821    99A      0.471483
     100A      0.475805   101A      0.478537   102A      0.492140
     103A      0.504862   104A      0.507531   105A      0.514914
     106A      0.523483   107A      0.524547   108A      0.528668
     109A      0.535444   110A      0.554577   111A      0.557564
     112A      0.561229   113A      0.564214   114A      0.570535
     115A      0.581621   116A      0.587535   117A      0.591506
     118A      0.593799   119A      0.595724   120A      0.608929
     121A      0.614865   122A      0.619884   123A      0.636088
     124A      0.643517   125A      0.644321   126A      0.649071
     127A      0.651210   128A      0.679129   129A      0.685034
     130A      0.685137   131A      0.687758   132A      0.689932
     133A      0.690342   134A      0.694828   135A      0.703829
     136A      0.719599   137A      0.728112   138A      0.746507
     139A      0.746559   140A      0.754817   141A      0.766965
     142A      0.775402   143A      0.781406   144A      0.793349
     145A      0.799815   146A      0.802710   147A      0.810814
     148A      0.811694   149A      0.819016   150A      0.824474
     151A      0.831071   152A      0.847513   153A      0.847786
     154A      0.848905   155A      0.868324   156A      0.880544
     157A      0.886410   158A      0.887869   159A      0.894682
     160A      0.905825   161A      0.928830   162A      0.929272
     163A      0.939466   164A      0.947412   165A      0.949307
     166A      0.970499   167A      0.976660   168A      0.986361
     169A      0.996652   170A      0.998908   171A      1.013015
     172A      1.032136   173A      1.033370   174A      1.046650
     175A      1.051194   176A      1.075983   177A      1.089381
     178A      1.090002   179A      1.100445   180A      1.122199
     181A      1.124044   182A      1.130383   183A      1.134362
     184A      1.139987   185A      1.158740   186A      1.168309
     187A      1.170396   188A      1.173565   189A      1.191931
     190A      1.192965   191A      1.200200   192A      1.222034
     193A      1.235416   194A      1.238804   195A      1.250753
     196A      1.307281   197A      1.309674   198A      1.317989
     199A      1.326134   200A      1.329337   201A      1.331148
     202A      1.346534   203A      1.388930   204A      1.414282
     205A      1.448114   206A      1.451526   207A      1.455184
     208A      1.478856   209A      1.486137   210A      1.486929
     211A      1.488075   212A      1.499211   213A      1.502846
     214A      1.518252   215A      1.572686   216A      1.574192
     217A      1.587836   218A      1.635982   219A      1.640505
     220A      1.648219   221A      1.658963   222A      1.676552
     223A      1.697791   224A      1.716991   225A      1.746597
     226A      1.755104   227A      1.783762   228A      1.815727
     229A      1.893323   230A      1.916137   231A      1.964829
     232A      1.987674   233A      2.031202   234A      2.069946
     235A      2.091548   236A      2.101028   237A      2.102487
     238A      2.119164   239A      2.142953   240A      2.156395
     241A      2.158910   242A      2.163355   243A      2.190488
     244A      2.193301   245A      2.194581   246A      2.200380
     247A      2.202410   248A      2.227626   249A      2.234497
     250A      2.240923   251A      2.249379   252A      2.309734
     253A      2.312761   254A      2.319270   255A      2.355229
     256A      2.384526   257A      2.418931   258A      2.430957
     259A      2.435134   260A      2.437886   261A      2.438977
     262A      2.472399   263A      2.486445   264A      2.498040
     265A      2.519379   266A      2.522395   267A      2.524789
     268A      2.545717   269A      2.568048   270A      2.584766
     271A      2.592093   272A      2.606266   273A      2.625693
     274A      2.665224   275A      2.675409   276A      2.686395
     277A      2.713985   278A      2.716619   279A      2.718591
     280A      2.726376   281A      2.767659   282A      2.844014
     283A      2.865761   284A      2.903757   285A      2.939196
     286A      2.946950   287A      2.955476   288A      2.973067
     289A      3.001855   290A      3.017872   291A      3.032186
     292A      3.058054   293A      3.064949   294A      3.094137
     295A      3.113589   296A      3.220316   297A      3.245452
     298A      3.255980   299A      3.284880   300A      3.289409
     301A      3.321684   302A      3.337470   303A      3.340210
     304A      3.348384   305A      3.351110   306A      3.366140
     307A      3.412355   308A      3.413367   309A      3.470508
     310A      3.501710   311A      3.514920   312A      3.521125
     313A      3.590655   314A      3.604198   315A      3.605406
     316A      3.627769   317A      3.700246   318A      3.818680
     319A      3.830448   320A      3.940730   321A      3.968853
     322A      3.977236   323A      4.011159   324A      4.194516
     325A      4.242007   326A      4.253485   327A      4.441746
     328A      4.546588   329A      4.579038   330A      4.867401
     331A      4.975900   332A      5.057612   333A      5.261469
     334A      5.316297   335A      5.629956   336A      5.691083
     337A      5.826908   338A      5.952386   339A      6.283586
     340A      6.306645   341A      6.453520   342A      6.630956
     343A     18.125473   344A     18.207735   345A     19.017330
     346A     19.342756   347A     25.286824   348A     25.374543

    Final Occupation by Irrep:
              A
    DOCC [    21 ]

  @DF-RHF Final Energy:  -262.63994485129172

   => Energetics <=

    Nuclear Repulsion Energy =            212.5517311104853491
    One-Electron Energy =                -775.4594096189639458
    Two-Electron Energy =                 300.2677336571869091
    Total Energy =                       -262.6399448512917161

Computation Completed


Properties will be evaluated at   0.000000,   0.000000,   0.000000 [a0]

Properties computed using the SCF density matrix

  Nuclear Dipole Moment: [e a0]
     X:    55.0814      Y:    41.1737      Z:    17.9034

  Electronic Dipole Moment: [e a0]
     X:   -55.0814      Y:   -41.1737      Z:   -17.9034

  Dipole Moment: [e a0]
     X:     0.0000      Y:     0.0000      Z:    -0.0000     Total:     0.0000

  Dipole Moment: [D]
     X:     0.0000      Y:     0.0000      Z:    -0.0000     Total:     0.0000


*** tstop() called on atl1-1-01-013-7-l.pace.gatech.edu at Mon Nov 29 16:11:08 2021
Module time:
	user time   =      15.91 seconds =       0.27 minutes
	system time =       0.51 seconds =       0.01 minutes
	total time  =          9 seconds =       0.15 minutes
Total time:
	user time   =      42.17 seconds =       0.70 minutes
	system time =       1.46 seconds =       0.02 minutes
	total time  =         24 seconds =       0.40 minutes

  //>>>>>>>>>>>>>>>>>>>>>>>>>>>>>>>>>>>//
  //            Monomer B HF           //
  //<<<<<<<<<<<<<<<<<<<<<<<<<<<<<<<<<<<//


*** tstart() called on atl1-1-01-013-7-l.pace.gatech.edu
*** at Mon Nov 29 16:11:08 2021

   => Loading Basis Set <=

    Name: AUG-CC-PVDZ
    Role: ORBITAL
    Keyword: BASIS
    atoms 1-2, 11-12  entry N          line   218 file /storage/home/hhive1/csargent30/data/miniconda3/envs/psi4/share/psi4/basis/aug-cc-pvdz.gbs
    atoms 3-6, 13-16  entry H          line    40 file /storage/home/hhive1/csargent30/data/miniconda3/envs/psi4/share/psi4/basis/aug-cc-pvdz.gbs
    atoms 7-10, 17-20 entry C          line   182 file /storage/home/hhive1/csargent30/data/miniconda3/envs/psi4/share/psi4/basis/aug-cc-pvdz.gbs


         ---------------------------------------------------------
                                   SCF
               by Justin Turney, Rob Parrish, Andy Simmonett
                          and Daniel G. A. Smith
                              RHF Reference
                        2 Threads,   6675 MiB Core
         ---------------------------------------------------------

  ==> Geometry <==

    Molecular point group: c1
    Full point group: C1

    Geometry (in Bohr), charge = 0, multiplicity = 1:

       Center              X                  Y                   Z               Mass
    ------------   -----------------  -----------------  -----------------  -----------------
      Gh(N)          -1.330847580000     0.980326580000     0.426270370000    14.003074004430
      Gh(N)           3.953773330000     0.980326580000     0.426270370000    14.003074004430
      Gh(H)           3.567136740000     4.352185690000    -0.942309730000     1.007825032230
      Gh(H)          -0.944210980000     4.352185690000    -0.942309730000     1.007825032230
      Gh(H)          -0.944210980000    -2.391532530000     1.794850470000     1.007825032230
      Gh(H)           3.567136740000    -2.391532530000     1.794850470000     1.007825032230
      Gh(C)           2.622925760000     2.940979740000    -0.426270370000    12.000000000000
      Gh(C)           0.000000000000     2.940979740000    -0.426270370000    12.000000000000
      Gh(C)           0.000000000000    -0.980326580000     1.278811120000    12.000000000000
      Gh(C)           2.622925760000    -0.980326580000     1.278811120000    12.000000000000
         N           -1.330847580000   -32.185500760000    14.535343570000    14.003074004430
         N            3.953773330000   -32.185500760000    14.535343570000    14.003074004430
         H            3.567136740000   -28.813641650000    13.166763470000     1.007825032230
         H           -0.944210980000   -28.813641650000    13.166763470000     1.007825032230
         H           -0.944210980000   -35.557359870000    15.903923670000     1.007825032230
         H            3.567136740000   -35.557359870000    15.903923670000     1.007825032230
         C            2.622925760000   -30.224847600000    13.682802820000    12.000000000000
         C            0.000000000000   -30.224847600000    13.682802820000    12.000000000000
         C            0.000000000000   -34.146153920000    15.387884320000    12.000000000000
         C            2.622925760000   -34.146153920000    15.387884320000    12.000000000000

  Running in c1 symmetry.

  Rotational constants: A =      0.07614  B =      0.00060  C =      0.00059 [cm^-1]
  Rotational constants: A =   2282.69195  B =     17.94328  C =     17.81742 [MHz]
  Nuclear repulsion =  212.551731042300503

  Charge       = 0
  Multiplicity = 1
  Electrons    = 42
  Nalpha       = 21
  Nbeta        = 21

  ==> Algorithm <==

  SCF Algorithm Type is DF.
  DIIS enabled.
  MOM disabled.
  Fractional occupation disabled.
  Guess Type is SAD.
  Energy threshold   = 1.00e-10
  Density threshold  = 1.00e-10
  Integral threshold = 1.00e-12

  ==> Primary Basis <==

  Basis Set: AUG-CC-PVDZ
    Blend: AUG-CC-PVDZ
    Number of shells: 148
    Number of basis functions: 348
    Number of Cartesian functions: 372
    Spherical Harmonics?: true
    Max angular momentum: 2

   => Loading Basis Set <=

    Name: (AUG-CC-PVDZ AUX)
    Role: JKFIT
    Keyword: DF_BASIS_SCF
    atoms 1-2, 11-12  entry N          line   212 file /storage/home/hhive1/csargent30/data/miniconda3/envs/psi4/share/psi4/basis/aug-cc-pvdz-jkfit.gbs
    atoms 3-6, 13-16  entry H          line    70 file /storage/home/hhive1/csargent30/data/miniconda3/envs/psi4/share/psi4/basis/aug-cc-pvdz-jkfit.gbs
    atoms 7-10, 17-20 entry C          line   154 file /storage/home/hhive1/csargent30/data/miniconda3/envs/psi4/share/psi4/basis/aug-cc-pvdz-jkfit.gbs

  ==> Integral Setup <==

  ==> DiskDFJK: Density-Fitted J/K Matrices <==

    J tasked:                  Yes
    K tasked:                  Yes
    wK tasked:                  No
    OpenMP threads:              2
    Integrals threads:           2
    Memory [MiB]:             5006
    Algorithm:                Core
    Integral Cache:           LOAD
    Schwarz Cutoff:          1E-12
    Fitting Condition:       1E-10

   => Auxiliary Basis Set <=

  Basis Set: (AUG-CC-PVDZ AUX)
    Blend: AUG-CC-PVDZ-JKFIT
    Number of shells: 432
    Number of basis functions: 1288
    Number of Cartesian functions: 1492
    Spherical Harmonics?: true
    Max angular momentum: 3

  Minimum eigenvalue in the overlap matrix is 9.4870721988E-06.
  Reciprocal condition number of the overlap matrix is 7.3996050654E-07.
    Using symmetric orthogonalization.

  ==> Pre-Iterations <==

  SCF Guess: Superposition of Atomic Densities via on-the-fly atomic UHF (no occupation information).

   -------------------------
    Irrep   Nso     Nmo
   -------------------------
     A        348     348
   -------------------------
    Total     348     348
   -------------------------

  ==> Iterations <==

                           Total Energy        Delta E     RMS |[F,P]|

   @DF-RHF iter SAD:  -262.32523125050500   -2.62325e+02   0.00000e+00
   @DF-RHF iter   1:  -262.53940797649312   -2.14177e-01   1.11985e-03 DIIS
   @DF-RHF iter   2:  -262.62878836926313   -8.93804e-02   4.10664e-04 DIIS
   @DF-RHF iter   3:  -262.63862291373414   -9.83454e-03   1.28248e-04 DIIS
   @DF-RHF iter   4:  -262.63984766699122   -1.22475e-03   3.77599e-05 DIIS
   @DF-RHF iter   5:  -262.63993726745434   -8.96005e-05   7.55558e-06 DIIS
   @DF-RHF iter   6:  -262.63994381771397   -6.55026e-06   2.45264e-06 DIIS
   @DF-RHF iter   7:  -262.63994477008816   -9.52374e-07   6.40130e-07 DIIS
   @DF-RHF iter   8:  -262.63994484397625   -7.38881e-08   9.91693e-08 DIIS
   @DF-RHF iter   9:  -262.63994484596066   -1.98440e-09   1.88228e-08 DIIS
   @DF-RHF iter  10:  -262.63994484603194   -7.12816e-11   3.19151e-09 DIIS
   @DF-RHF iter  11:  -262.63994484603444   -2.50111e-12   5.22318e-10 DIIS
   @DF-RHF iter  12:  -262.63994484603427    1.70530e-13   9.54357e-11 DIIS
  Energy and wave function converged.


  ==> Post-Iterations <==

    Orbital Energies [Eh]
    ---------------------

    Doubly Occupied:

       1A    -15.598072     2A    -15.598053     3A    -11.274239
       4A    -11.274194     5A    -11.272975     6A    -11.272969
       7A     -1.313347     8A     -1.224176     9A     -1.076803
      10A     -0.922662    11A     -0.919282    12A     -0.760637
      13A     -0.738402    14A     -0.706214    15A     -0.647687
      16A     -0.580711    17A     -0.574369    18A     -0.497113
      19A     -0.434288    20A     -0.415855    21A     -0.359924

    Virtual:

      22A      0.022151    23A      0.034497    24A      0.039200
      25A      0.040739    26A      0.040909    27A      0.048383
      28A      0.058547    29A      0.058606    30A      0.067113
      31A      0.079409    32A      0.084744    33A      0.099419
      34A      0.100948    35A      0.103705    36A      0.108247
      37A      0.108580    38A      0.114201    39A      0.114951
      40A      0.122217    41A      0.123776    42A      0.125286
      43A      0.125324    44A      0.128661    45A      0.130672
      46A      0.132889    47A      0.133854    48A      0.151815
      49A      0.152753    50A      0.158199    51A      0.159071
      52A      0.161084    53A      0.161326    54A      0.163914
      55A      0.175179    56A      0.176452    57A      0.186918
      58A      0.197531    59A      0.203620    60A      0.203909
      61A      0.206388    62A      0.212538    63A      0.222092
      64A      0.233340    65A      0.239165    66A      0.250517
      67A      0.254952    68A      0.267756    69A      0.270503
      70A      0.278057    71A      0.287812    72A      0.293207
      73A      0.295749    74A      0.302029    75A      0.314832
      76A      0.320359    77A      0.320457    78A      0.327876
      79A      0.331022    80A      0.343848    81A      0.355428
      82A      0.357908    83A      0.364661    84A      0.380217
      85A      0.382583    86A      0.385356    87A      0.398891
      88A      0.400995    89A      0.409895    90A      0.418989
      91A      0.424667    92A      0.425453    93A      0.433925
      94A      0.437212    95A      0.441652    96A      0.452092
      97A      0.460378    98A      0.460821    99A      0.471483
     100A      0.475805   101A      0.478537   102A      0.492140
     103A      0.504862   104A      0.507531   105A      0.514914
     106A      0.523483   107A      0.524547   108A      0.528668
     109A      0.535444   110A      0.554577   111A      0.557564
     112A      0.561229   113A      0.564214   114A      0.570535
     115A      0.581621   116A      0.587535   117A      0.591506
     118A      0.593799   119A      0.595724   120A      0.608929
     121A      0.614865   122A      0.619884   123A      0.636088
     124A      0.643517   125A      0.644321   126A      0.649071
     127A      0.651210   128A      0.679129   129A      0.685034
     130A      0.685137   131A      0.687758   132A      0.689932
     133A      0.690342   134A      0.694828   135A      0.703830
     136A      0.719599   137A      0.728112   138A      0.746507
     139A      0.746559   140A      0.754817   141A      0.766965
     142A      0.775402   143A      0.781406   144A      0.793349
     145A      0.799815   146A      0.802710   147A      0.810814
     148A      0.811694   149A      0.819016   150A      0.824474
     151A      0.831071   152A      0.847513   153A      0.847786
     154A      0.848905   155A      0.868324   156A      0.880544
     157A      0.886410   158A      0.887869   159A      0.894682
     160A      0.905825   161A      0.928830   162A      0.929272
     163A      0.939466   164A      0.947412   165A      0.949307
     166A      0.970499   167A      0.976660   168A      0.986361
     169A      0.996652   170A      0.998908   171A      1.013015
     172A      1.032136   173A      1.033370   174A      1.046650
     175A      1.051194   176A      1.075983   177A      1.089381
     178A      1.090002   179A      1.100445   180A      1.122199
     181A      1.124044   182A      1.130383   183A      1.134362
     184A      1.139987   185A      1.158740   186A      1.168309
     187A      1.170396   188A      1.173565   189A      1.191931
     190A      1.192965   191A      1.200200   192A      1.222034
     193A      1.235416   194A      1.238804   195A      1.250753
     196A      1.307281   197A      1.309674   198A      1.317989
     199A      1.326134   200A      1.329337   201A      1.331148
     202A      1.346534   203A      1.388930   204A      1.414282
     205A      1.448114   206A      1.451526   207A      1.455184
     208A      1.478856   209A      1.486137   210A      1.486929
     211A      1.488075   212A      1.499211   213A      1.502846
     214A      1.518252   215A      1.572686   216A      1.574192
     217A      1.587836   218A      1.635982   219A      1.640505
     220A      1.648219   221A      1.658963   222A      1.676552
     223A      1.697791   224A      1.716991   225A      1.746597
     226A      1.755104   227A      1.783762   228A      1.815727
     229A      1.893323   230A      1.916137   231A      1.964829
     232A      1.987674   233A      2.031202   234A      2.069946
     235A      2.091548   236A      2.101028   237A      2.102487
     238A      2.119164   239A      2.142953   240A      2.156395
     241A      2.158910   242A      2.163355   243A      2.190488
     244A      2.193301   245A      2.194581   246A      2.200380
     247A      2.202410   248A      2.227626   249A      2.234497
     250A      2.240923   251A      2.249379   252A      2.309734
     253A      2.312761   254A      2.319270   255A      2.355229
     256A      2.384526   257A      2.418931   258A      2.430957
     259A      2.435134   260A      2.437886   261A      2.438977
     262A      2.472399   263A      2.486445   264A      2.498040
     265A      2.519379   266A      2.522395   267A      2.524789
     268A      2.545717   269A      2.568048   270A      2.584766
     271A      2.592093   272A      2.606266   273A      2.625693
     274A      2.665224   275A      2.675409   276A      2.686395
     277A      2.713985   278A      2.716619   279A      2.718591
     280A      2.726376   281A      2.767659   282A      2.844014
     283A      2.865761   284A      2.903757   285A      2.939196
     286A      2.946950   287A      2.955476   288A      2.973067
     289A      3.001855   290A      3.017872   291A      3.032186
     292A      3.058054   293A      3.064949   294A      3.094137
     295A      3.113589   296A      3.220316   297A      3.245452
     298A      3.255980   299A      3.284880   300A      3.289409
     301A      3.321684   302A      3.337470   303A      3.340210
     304A      3.348384   305A      3.351110   306A      3.366140
     307A      3.412355   308A      3.413367   309A      3.470508
     310A      3.501710   311A      3.514920   312A      3.521125
     313A      3.590655   314A      3.604198   315A      3.605406
     316A      3.627769   317A      3.700246   318A      3.818680
     319A      3.830448   320A      3.940730   321A      3.968853
     322A      3.977236   323A      4.011159   324A      4.194516
     325A      4.242007   326A      4.253485   327A      4.441746
     328A      4.546588   329A      4.579038   330A      4.867401
     331A      4.975900   332A      5.057612   333A      5.261469
     334A      5.316297   335A      5.629956   336A      5.691083
     337A      5.826908   338A      5.952386   339A      6.283586
     340A      6.306645   341A      6.453520   342A      6.630956
     343A     18.125473   344A     18.207735   345A     19.017330
     346A     19.342756   347A     25.286824   348A     25.374543

    Final Occupation by Irrep:
              A
    DOCC [    21 ]

  @DF-RHF Final Energy:  -262.63994484603427

   => Energetics <=

    Nuclear Repulsion Energy =            212.5517310423005028
    One-Electron Energy =                -775.4594094809907574
    Two-Electron Energy =                 300.2677335926559863
    Total Energy =                       -262.6399448460342683

Computation Completed


Properties will be evaluated at   0.000000,   0.000000,   0.000000 [a0]

Properties computed using the SCF density matrix

  Nuclear Dipole Moment: [e a0]
     X:    55.0814      Y: -1351.7910      Z:   610.4844

  Electronic Dipole Moment: [e a0]
     X:   -55.0814      Y:  1351.7910      Z:  -610.4844

  Dipole Moment: [e a0]
     X:     0.0000      Y:    -0.0000      Z:     0.0000     Total:     0.0000

  Dipole Moment: [D]
     X:     0.0000      Y:    -0.0000      Z:     0.0000     Total:     0.0000


*** tstop() called on atl1-1-01-013-7-l.pace.gatech.edu at Mon Nov 29 16:11:17 2021
Module time:
	user time   =      16.20 seconds =       0.27 minutes
	system time =       0.45 seconds =       0.01 minutes
	total time  =          9 seconds =       0.15 minutes
Total time:
	user time   =      58.38 seconds =       0.97 minutes
	system time =       1.91 seconds =       0.03 minutes
	total time  =         33 seconds =       0.55 minutes
  Constructing Basis Sets for SAPT...

   => Loading Basis Set <=

    Name: (AUG-CC-PVDZ AUX)
    Role: RIFIT
    Keyword: DF_BASIS_SAPT
    atoms 1-2, 11-12  entry N          line   158 file /storage/home/hhive1/csargent30/data/miniconda3/envs/psi4/share/psi4/basis/aug-cc-pvdz-ri.gbs
    atoms 3-6, 13-16  entry H          line    30 file /storage/home/hhive1/csargent30/data/miniconda3/envs/psi4/share/psi4/basis/aug-cc-pvdz-ri.gbs
    atoms 7-10, 17-20 entry C          line   112 file /storage/home/hhive1/csargent30/data/miniconda3/envs/psi4/share/psi4/basis/aug-cc-pvdz-ri.gbs


  //>>>>>>>>>>>>>>>>>>>>>>>>>>>>>>>>>>>//
  //               SAPT0               //
  //<<<<<<<<<<<<<<<<<<<<<<<<<<<<<<<<<<<//


*** tstart() called on atl1-1-01-013-7-l.pace.gatech.edu
*** at Mon Nov 29 16:11:17 2021

        SAPT0
    Ed Hohenstein
     6 June 2009

      Orbital Information
  --------------------------
    NSO        =       348
    NMO        =       348
    NRI        =      1048
    NOCC A     =        21
    NOCC B     =        21
    FOCC A     =         6
    FOCC B     =         6
    NVIR A     =       327
    NVIR B     =       327

    Elst10,r            =     0.000008479206 [Eh]
    Exch10              =     0.000000000000 [Eh]
    Exch10 (S^2)        =     0.000000000000 [Eh]

    Iter     Energy [mEh]          dE [mEh]         Residual      Time [s]
       1      -0.00000943       0.000009434       0.035021598             0
       2      -0.00000844      -0.000000993       0.007236872             0
       3      -0.00000945       0.000001009       0.002252355             1
       4      -0.00000944      -0.000000008       0.001361477             1
       5      -0.00000941      -0.000000028       0.000417498             1
       6      -0.00000941       0.000000001       0.000143621             2
       7      -0.00000942       0.000000004       0.000045369             2
       8      -0.00000942       0.000000000       0.000013514             3
       9      -0.00000942      -0.000000001       0.000003089             3
      10      -0.00000942       0.000000000       0.000001281             3
      11      -0.00000942      -0.000000000       0.000000523             4

    CHF Iterations converged


    Iter     Energy [mEh]          dE [mEh]         Residual      Time [s]
       1      -0.00000943       0.000009434       0.035021598             0
       2      -0.00000844      -0.000000993       0.007236872             0
       3      -0.00000945       0.000001009       0.002252355             1
       4      -0.00000944      -0.000000008       0.001361477             1
       5      -0.00000941      -0.000000028       0.000417498             1
       6      -0.00000941       0.000000001       0.000143621             2
       7      -0.00000942       0.000000004       0.000045369             2
       8      -0.00000942       0.000000000       0.000013514             3
       9      -0.00000942      -0.000000001       0.000003089             3
      10      -0.00000942       0.000000000       0.000001281             3
      11      -0.00000942      -0.000000000       0.000000523             4

    CHF Iterations converged

    Ind20,r (A<-B)      =    -0.000000009419 [Eh]
    Ind20,r (B<-A)      =    -0.000000009419 [Eh]
    Ind20,r             =    -0.000000018837 [Eh]
    Exch-Ind20,r (A<-B) =     0.000000000000 [Eh]
    Exch-Ind20,r (B<-A) =     0.000000000000 [Eh]
    Exch-Ind20,r        =     0.000000000000 [Eh]
    Disp20              =    -0.000000967090 [Eh]
    Disp20 (SS)         =    -0.000000483545 [Eh]
    Disp20 (OS)         =    -0.000000483545 [Eh]
    Exch-Disp20         =     0.000000000000 [Eh]
    Exch-Disp20 (SS)    =     0.000000000000 [Eh]
    Exch-Disp20 (OS)    =     0.000000000000 [Eh]

    SAPT Results
  --------------------------------------------------------------------------------------------------------
    Electrostatics                  0.00847921 [mEh]       0.00532078 [kcal/mol]       0.02226215 [kJ/mol]
      Elst10,r                      0.00847921 [mEh]       0.00532078 [kcal/mol]       0.02226215 [kJ/mol]

    Exchange                        0.00000000 [mEh]       0.00000000 [kcal/mol]       0.00000000 [kJ/mol]
      Exch10                        0.00000000 [mEh]       0.00000000 [kcal/mol]       0.00000000 [kJ/mol]
      Exch10(S^2)                   0.00000000 [mEh]       0.00000000 [kcal/mol]       0.00000000 [kJ/mol]

    Induction                      -0.00003032 [mEh]      -0.00001903 [kcal/mol]      -0.00007962 [kJ/mol]
      Ind20,r                      -0.00001884 [mEh]      -0.00001182 [kcal/mol]      -0.00004946 [kJ/mol]
      Exch-Ind20,r                  0.00000000 [mEh]       0.00000000 [kcal/mol]       0.00000000 [kJ/mol]
      delta HF,r (2)               -0.00001149 [mEh]      -0.00000721 [kcal/mol]      -0.00003016 [kJ/mol]

    Dispersion                     -0.00096709 [mEh]      -0.00060686 [kcal/mol]      -0.00253909 [kJ/mol]
      Disp20                       -0.00096709 [mEh]      -0.00060686 [kcal/mol]      -0.00253909 [kJ/mol]
      Exch-Disp20                   0.00000000 [mEh]       0.00000000 [kcal/mol]       0.00000000 [kJ/mol]
      Disp20 (SS)                  -0.00048355 [mEh]      -0.00030343 [kcal/mol]      -0.00126955 [kJ/mol]
      Disp20 (OS)                  -0.00048355 [mEh]      -0.00030343 [kcal/mol]      -0.00126955 [kJ/mol]
      Exch-Disp20 (SS)              0.00000000 [mEh]       0.00000000 [kcal/mol]       0.00000000 [kJ/mol]
      Exch-Disp20 (OS)              0.00000000 [mEh]       0.00000000 [kcal/mol]       0.00000000 [kJ/mol]

  Total HF                          0.00844888 [mEh]       0.00530175 [kcal/mol]       0.02218254 [kJ/mol]
  Total SAPT0                       0.00748179 [mEh]       0.00469490 [kcal/mol]       0.01964344 [kJ/mol]

  Special recipe for scaled SAPT0 (see Manual):
    Electrostatics sSAPT0           0.00847921 [mEh]       0.00532078 [kcal/mol]       0.02226215 [kJ/mol]
    Exchange sSAPT0                 0.00000000 [mEh]       0.00000000 [kcal/mol]       0.00000000 [kJ/mol]
    Induction sSAPT0               -0.00003032 [mEh]      -0.00001903 [kcal/mol]      -0.00007962 [kJ/mol]
    Dispersion sSAPT0              -0.00096709 [mEh]      -0.00060686 [kcal/mol]      -0.00253909 [kJ/mol]
  Total sSAPT0                      0.00748179 [mEh]       0.00469490 [kcal/mol]       0.01964344 [kJ/mol]
  --------------------------------------------------------------------------------------------------------

*** tstop() called on atl1-1-01-013-7-l.pace.gatech.edu at Mon Nov 29 16:12:27 2021
Module time:
	user time   =      38.23 seconds =       0.64 minutes
	system time =       9.25 seconds =       0.15 minutes
	total time  =         70 seconds =       1.17 minutes
Total time:
	user time   =      96.86 seconds =       1.61 minutes
	system time =      11.17 seconds =       0.19 minutes
	total time  =        103 seconds =       1.72 minutes


Warning! sapt0 does not have an associated derived wavefunction.The returned wavefunction is the dimer SCF wavefunction.


    Psi4 stopped on: Monday, 29 November 2021 04:12PM
    Psi4 wall time for execution: 0:01:43.41

*** Psi4 exiting successfully. Buy a developer a beer!
