
    -----------------------------------------------------------------------
          Psi4: An Open-Source Ab Initio Electronic Structure Package
                               Psi4 1.4.1 release

                         Git: Rev {HEAD} cd00f19


    D. G. A. Smith, L. A. Burns, A. C. Simmonett, R. M. Parrish,
    M. C. Schieber, R. Galvelis, P. Kraus, H. Kruse, R. Di Remigio,
    A. Alenaizan, A. M. James, S. Lehtola, J. P. Misiewicz, M. Scheurer,
    R. A. Shaw, J. B. Schriber, Y. Xie, Z. L. Glick, D. A. Sirianni,
    J. S. O'Brien, J. M. Waldrop, A. Kumar, E. G. Hohenstein,
    B. P. Pritchard, B. R. Brooks, H. F. Schaefer III, A. Yu. Sokolov,
    K. Patkowski, A. E. DePrince III, U. Bozkaya, R. A. King,
    F. A. Evangelista, J. M. Turney, T. D. Crawford, C. D. Sherrill,
    J. Chem. Phys. 152(18) 184108 (2020). https://doi.org/10.1063/5.0006002

                            Additional Code Authors
    E. T. Seidl, C. L. Janssen, E. F. Valeev, M. L. Leininger,
    J. F. Gonthier, R. M. Richard, H. R. McAlexander, M. Saitow, X. Wang,
    P. Verma, and M. H. Lechner

             Previous Authors, Complete List of Code Contributors,
                       and Citations for Specific Modules
    https://github.com/psi4/psi4/blob/master/codemeta.json
    https://github.com/psi4/psi4/graphs/contributors
    http://psicode.org/psi4manual/master/introduction.html#citing-psifour

    -----------------------------------------------------------------------


    Psi4 started on: Monday, 29 November 2021 04:10PM

    Process ID: 392559
    Host:       atl1-1-01-015-9-l.pace.gatech.edu
    PSIDATADIR: /storage/home/hhive1/csargent30/data/miniconda3/envs/psi4/share/psi4
    Memory:     500.0 MiB
    Threads:    2

  ==> Input File <==

--------------------------------------------------------------------------
# PSI4 file produced by CrystaLattE

# Generated from:               pyrazine.xyz
# Psithon input for N-mer:      2mer-0+369
# Number of atoms per monomer:  [10, 10]
# Number of replicas:           4
# COM priority:                 1.388431269414e-05
# Minimum COM separations:      22.017
# Separation priority:          2.441602415097e-05
# Minimum monomer separations:  18.241
# Cutoff priority:              7.083261267628e-07
# Nuclear repulsion energy:     467.5817968736925

memory 7 GB

molecule Dimer_0_369 {
  N           -1.33084758       0.98032658       0.42627037
  N            3.95377333       0.98032658       0.42627037
  H            3.56713674       4.35218569      -0.94230973
  H           -0.94421098       4.35218569      -0.94230973
  H           -0.94421098      -2.39153253       1.79485047
  H            3.56713674      -2.39153253       1.79485047
  C            2.62292576       2.94097974      -0.42627037
  C            0.00000000       2.94097974      -0.42627037
  C            0.00000000      -0.98032658       1.27881112
  C            2.62292576      -0.98032658       1.27881112
--
  N          -36.57575160     -21.13022498       0.42627037
  N          -31.29113069     -21.13022498       0.42627037
  H          -31.67776728     -17.75836587      -0.94230973
  H          -36.18911500     -17.75836587      -0.94230973
  H          -36.18911500     -24.50208409       1.79485047
  H          -31.67776728     -24.50208409       1.79485047
  C          -32.62197826     -19.16957182      -0.42627037
  C          -35.24490402     -19.16957182      -0.42627037
  C          -35.24490402     -23.09087814       1.27881112
  C          -32.62197826     -23.09087814       1.27881112
units = au
no_com
no_reorient
}

set {
  e_convergence 10
  d_convergence 10
  scf_type df
  mp2_type df
  cc_type df
  freeze_core true
}

energy('sapt0/aug-cc-pvdz')

--------------------------------------------------------------------------

  Memory set to   6.519 GiB by Python driver.

Scratch directory: /tmp/

Scratch directory: /tmp/

  //>>>>>>>>>>>>>>>>>>>>>>>>>>>>>>>>>>>//
  //              Dimer HF             //
  //<<<<<<<<<<<<<<<<<<<<<<<<<<<<<<<<<<<//


*** tstart() called on atl1-1-01-015-9-l.pace.gatech.edu
*** at Mon Nov 29 16:10:41 2021

   => Loading Basis Set <=

    Name: AUG-CC-PVDZ
    Role: ORBITAL
    Keyword: BASIS
    atoms 1-2, 11-12  entry N          line   218 file /storage/home/hhive1/csargent30/data/miniconda3/envs/psi4/share/psi4/basis/aug-cc-pvdz.gbs
    atoms 3-6, 13-16  entry H          line    40 file /storage/home/hhive1/csargent30/data/miniconda3/envs/psi4/share/psi4/basis/aug-cc-pvdz.gbs
    atoms 7-10, 17-20 entry C          line   182 file /storage/home/hhive1/csargent30/data/miniconda3/envs/psi4/share/psi4/basis/aug-cc-pvdz.gbs


         ---------------------------------------------------------
                                   SCF
               by Justin Turney, Rob Parrish, Andy Simmonett
                          and Daniel G. A. Smith
                              RHF Reference
                        2 Threads,   6675 MiB Core
         ---------------------------------------------------------

  ==> Geometry <==

    Molecular point group: c1
    Full point group: C1

    Geometry (in Bohr), charge = 0, multiplicity = 1:

       Center              X                  Y                   Z               Mass
    ------------   -----------------  -----------------  -----------------  -----------------
         N           -1.330847580000     0.980326580000     0.426270370000    14.003074004430
         N            3.953773330000     0.980326580000     0.426270370000    14.003074004430
         H            3.567136740000     4.352185690000    -0.942309730000     1.007825032230
         H           -0.944210980000     4.352185690000    -0.942309730000     1.007825032230
         H           -0.944210980000    -2.391532530000     1.794850470000     1.007825032230
         H            3.567136740000    -2.391532530000     1.794850470000     1.007825032230
         C            2.622925760000     2.940979740000    -0.426270370000    12.000000000000
         C            0.000000000000     2.940979740000    -0.426270370000    12.000000000000
         C            0.000000000000    -0.980326580000     1.278811120000    12.000000000000
         C            2.622925760000    -0.980326580000     1.278811120000    12.000000000000
         N          -36.575751600000   -21.130224980000     0.426270370000    14.003074004430
         N          -31.291130690000   -21.130224980000     0.426270370000    14.003074004430
         H          -31.677767280000   -17.758365870000    -0.942309730000     1.007825032230
         H          -36.189115000000   -17.758365870000    -0.942309730000     1.007825032230
         H          -36.189115000000   -24.502084090000     1.794850470000     1.007825032230
         H          -31.677767280000   -24.502084090000     1.794850470000     1.007825032230
         C          -32.621978260000   -19.169571820000    -0.426270370000    12.000000000000
         C          -35.244904020000   -19.169571820000    -0.426270370000    12.000000000000
         C          -35.244904020000   -23.090878140000     1.278811120000    12.000000000000
         C          -32.621978260000   -23.090878140000     1.278811120000    12.000000000000

  Running in c1 symmetry.

  Rotational constants: A =      0.10053  B =      0.00047  C =      0.00047 [cm^-1]
  Rotational constants: A =   3013.83517  B =     14.02013  C =     13.96392 [MHz]
  Nuclear repulsion =  467.581796870291839

  Charge       = 0
  Multiplicity = 1
  Electrons    = 84
  Nalpha       = 42
  Nbeta        = 42

  ==> Algorithm <==

  SCF Algorithm Type is DF.
  DIIS enabled.
  MOM disabled.
  Fractional occupation disabled.
  Guess Type is SAD.
  Energy threshold   = 1.00e-10
  Density threshold  = 1.00e-10
  Integral threshold = 1.00e-12

  ==> Primary Basis <==

  Basis Set: AUG-CC-PVDZ
    Blend: AUG-CC-PVDZ
    Number of shells: 148
    Number of basis functions: 348
    Number of Cartesian functions: 372
    Spherical Harmonics?: true
    Max angular momentum: 2

   => Loading Basis Set <=

    Name: (AUG-CC-PVDZ AUX)
    Role: JKFIT
    Keyword: DF_BASIS_SCF
    atoms 1-2, 11-12  entry N          line   212 file /storage/home/hhive1/csargent30/data/miniconda3/envs/psi4/share/psi4/basis/aug-cc-pvdz-jkfit.gbs
    atoms 3-6, 13-16  entry H          line    70 file /storage/home/hhive1/csargent30/data/miniconda3/envs/psi4/share/psi4/basis/aug-cc-pvdz-jkfit.gbs
    atoms 7-10, 17-20 entry C          line   154 file /storage/home/hhive1/csargent30/data/miniconda3/envs/psi4/share/psi4/basis/aug-cc-pvdz-jkfit.gbs

  ==> Integral Setup <==

  ==> DiskDFJK: Density-Fitted J/K Matrices <==

    J tasked:                  Yes
    K tasked:                  Yes
    wK tasked:                  No
    OpenMP threads:              2
    Integrals threads:           2
    Memory [MiB]:             5006
    Algorithm:                Core
    Integral Cache:           SAVE
    Schwarz Cutoff:          1E-12
    Fitting Condition:       1E-10

   => Auxiliary Basis Set <=

  Basis Set: (AUG-CC-PVDZ AUX)
    Blend: AUG-CC-PVDZ-JKFIT
    Number of shells: 432
    Number of basis functions: 1288
    Number of Cartesian functions: 1492
    Spherical Harmonics?: true
    Max angular momentum: 3

  Minimum eigenvalue in the overlap matrix is 9.4898424162E-06.
  Reciprocal condition number of the overlap matrix is 7.4017659555E-07.
    Using symmetric orthogonalization.

  ==> Pre-Iterations <==

  SCF Guess: Superposition of Atomic Densities via on-the-fly atomic UHF (no occupation information).

   -------------------------
    Irrep   Nso     Nmo
   -------------------------
     A        348     348
   -------------------------
    Total     348     348
   -------------------------

  ==> Iterations <==

                           Total Energy        Delta E     RMS |[F,P]|

   @DF-RHF iter SAD:  -524.65046251576439   -5.24650e+02   0.00000e+00
   @DF-RHF iter   1:  -525.07881816539282   -4.28356e-01   1.58371e-03 DIIS
   @DF-RHF iter   2:  -525.25757881454922   -1.78761e-01   5.80763e-04 DIIS
   @DF-RHF iter   3:  -525.27724770893849   -1.96689e-02   1.81368e-04 DIIS
   @DF-RHF iter   4:  -525.27969718796464   -2.44948e-03   5.33998e-05 DIIS
   @DF-RHF iter   5:  -525.27987638399486   -1.79196e-04   1.06852e-05 DIIS
   @DF-RHF iter   6:  -525.27988948440873   -1.31004e-05   3.46852e-06 DIIS
   @DF-RHF iter   7:  -525.27989138909390   -1.90469e-06   9.05265e-07 DIIS
   @DF-RHF iter   8:  -525.27989153686281   -1.47769e-07   1.40301e-07 DIIS
   @DF-RHF iter   9:  -525.27989154083434   -3.97154e-09   2.69831e-08 DIIS
   @DF-RHF iter  10:  -525.27989154097475   -1.40403e-10   6.75702e-09 DIIS
   @DF-RHF iter  11:  -525.27989154098111   -6.36646e-12   3.18177e-09 DIIS
   @DF-RHF iter  12:  -525.27989154098259   -1.47793e-12   4.45162e-10 DIIS
   @DF-RHF iter  13:  -525.27989154098179    7.95808e-13   1.01180e-10 DIIS
   @DF-RHF iter  14:  -525.27989154098225   -4.54747e-13   4.50901e-11 DIIS
  Energy and wave function converged.


  ==> Post-Iterations <==

    Orbital Energies [Eh]
    ---------------------

    Doubly Occupied:

       1A    -15.598028     2A    -15.598028     3A    -15.598009
       4A    -15.598009     5A    -11.274195     6A    -11.274195
       7A    -11.274149     8A    -11.274149     9A    -11.272932
      10A    -11.272932    11A    -11.272924    12A    -11.272924
      13A     -1.313303    14A     -1.313303    15A     -1.224132
      16A     -1.224132    17A     -1.076759    18A     -1.076759
      19A     -0.922618    20A     -0.922618    21A     -0.919238
      22A     -0.919238    23A     -0.760593    24A     -0.760593
      25A     -0.738357    26A     -0.738357    27A     -0.706170
      28A     -0.706170    29A     -0.647643    30A     -0.647643
      31A     -0.580666    32A     -0.580666    33A     -0.574325
      34A     -0.574325    35A     -0.497069    36A     -0.497069
      37A     -0.434244    38A     -0.434244    39A     -0.415812
      40A     -0.415812    41A     -0.359880    42A     -0.359880

    Virtual:

      43A      0.034545    44A      0.034545    45A      0.040791
      46A      0.040791    47A      0.048431    48A      0.048431
      49A      0.058642    50A      0.058643    51A      0.067157
      52A      0.067157    53A      0.099464    54A      0.099464
      55A      0.100993    56A      0.100993    57A      0.114245
      58A      0.114245    59A      0.114994    60A      0.114994
      61A      0.123822    62A      0.123823    63A      0.125366
      64A      0.125366    65A      0.128708    66A      0.128708
      67A      0.132934    68A      0.132934    69A      0.158250
      70A      0.158250    71A      0.161132    72A      0.161132
      73A      0.161375    74A      0.161376    75A      0.163960
      76A      0.163962    77A      0.175226    78A      0.175227
      79A      0.186963    80A      0.186963    81A      0.203954
      82A      0.203954    83A      0.212580    84A      0.212580
      85A      0.250560    86A      0.250560    87A      0.267799
      88A      0.267799    89A      0.278100    90A      0.278100
      91A      0.287855    92A      0.287855    93A      0.293251
      94A      0.293251    95A      0.295790    96A      0.295792
      97A      0.314877    98A      0.314877    99A      0.320501
     100A      0.320501   101A      0.355472   102A      0.355473
     103A      0.357953   104A      0.357953   105A      0.364705
     106A      0.364705   107A      0.382628   108A      0.382628
     109A      0.398938   110A      0.398938   111A      0.409940
     112A      0.409940   113A      0.425499   114A      0.425500
     115A      0.433971   116A      0.433971   117A      0.437259
     118A      0.437259   119A      0.452136   120A      0.452136
     121A      0.471527   122A      0.471528   123A      0.492184
     124A      0.492184   125A      0.504907   126A      0.504907
     127A      0.514958   128A      0.514958   129A      0.524591
     130A      0.524591   131A      0.528713   132A      0.528713
     133A      0.554622   134A      0.554622   135A      0.570580
     136A      0.570580   137A      0.587579   138A      0.587579
     139A      0.591549   140A      0.591549   141A      0.593843
     142A      0.593843   143A      0.608974   144A      0.608974
     145A      0.643561   146A      0.643561   147A      0.644366
     148A      0.644366   149A      0.685180   150A      0.685180
     151A      0.687802   152A      0.687802   153A      0.689977
     154A      0.689977   155A      0.690386   156A      0.690387
     157A      0.694873   158A      0.694873   159A      0.703874
     160A      0.703875   161A      0.746604   162A      0.746604
     163A      0.754863   164A      0.754863   165A      0.767009
     166A      0.767009   167A      0.781449   168A      0.781449
     169A      0.799860   170A      0.799861   171A      0.802754
     172A      0.802754   173A      0.819059   174A      0.819059
     175A      0.831115   176A      0.831115   177A      0.847557
     178A      0.847557   179A      0.880589   180A      0.880589
     181A      0.886455   182A      0.886455   183A      0.894727
     184A      0.894727   185A      0.929317   186A      0.929317
     187A      0.939510   188A      0.939510   189A      0.949351
     190A      0.949351   191A      0.996696   192A      0.996696
     193A      0.998951   194A      0.998951   195A      1.013058
     196A      1.013058   197A      1.033415   198A      1.033415
     199A      1.051239   200A      1.051239   201A      1.089424
     202A      1.089424   203A      1.100489   204A      1.100489
     205A      1.122243   206A      1.122243   207A      1.124089
     208A      1.124089   209A      1.134407   210A      1.134407
     211A      1.158785   212A      1.158785   213A      1.173609
     214A      1.173609   215A      1.235460   216A      1.235460
     217A      1.238849   218A      1.238849   219A      1.309718
     220A      1.309718   221A      1.331192   222A      1.331192
     223A      1.414327   224A      1.414327   225A      1.451570
     226A      1.451570   227A      1.486180   228A      1.486180
     229A      1.488118   230A      1.488118   231A      1.499255
     232A      1.499255   233A      1.502890   234A      1.502890
     235A      1.518297   236A      1.518297   237A      1.572730
     238A      1.572730   239A      1.574236   240A      1.574237
     241A      1.587880   242A      1.587880   243A      1.636026
     244A      1.636026   245A      1.640549   246A      1.640549
     247A      1.648263   248A      1.648264   249A      1.676596
     250A      1.676596   251A      1.717035   252A      1.717035
     253A      1.746642   254A      1.746642   255A      1.755148
     256A      1.755148   257A      1.783806   258A      1.783806
     259A      1.815772   260A      1.815772   261A      1.893368
     262A      1.893368   263A      1.916181   264A      1.916181
     265A      1.964873   266A      1.964873   267A      1.987718
     268A      1.987718   269A      2.031247   270A      2.031247
     271A      2.091593   272A      2.091593   273A      2.101072
     274A      2.101072   275A      2.142997   276A      2.142997
     277A      2.163400   278A      2.163400   279A      2.190533
     280A      2.190533   281A      2.193346   282A      2.193346
     283A      2.200424   284A      2.200424   285A      2.202455
     286A      2.202455   287A      2.227670   288A      2.227670
     289A      2.312805   290A      2.312805   291A      2.355273
     292A      2.355273   293A      2.431000   294A      2.431000
     295A      2.439021   296A      2.439021   297A      2.519423
     298A      2.519423   299A      2.522439   300A      2.522439
     301A      2.584810   302A      2.584810   303A      2.606310
     304A      2.606310   305A      2.665268   306A      2.665268
     307A      2.675453   308A      2.675453   309A      2.686439
     310A      2.686439   311A      2.714028   312A      2.714029
     313A      2.718635   314A      2.718635   315A      2.844058
     316A      2.844058   317A      2.865804   318A      2.865804
     319A      2.939240   320A      2.939240   321A      3.001900
     322A      3.001900   323A      3.017915   324A      3.017915
     325A      3.032230   326A      3.032230   327A      3.094181
     328A      3.094181   329A      3.220360   330A      3.220361
     331A      3.256024   332A      3.256024   333A      3.284924
     334A      3.284924   335A      3.366184   336A      3.366184
     337A      3.413412   338A      3.413412   339A      3.514964
     340A      3.514964   341A      3.590699   342A      3.590699
     343A      3.627813   344A      3.627813   345A      3.977281
     346A      3.977281   347A      4.253529   348A      4.253529

    Final Occupation by Irrep:
              A
    DOCC [    42 ]

  @DF-RHF Final Energy:  -525.27989154098225

   => Energetics <=

    Nuclear Repulsion Energy =            467.5817968702918392
    One-Electron Energy =               -1635.8791942686279981
    Two-Electron Energy =                 643.0175058573539673
    Total Energy =                       -525.2798915409822484

Computation Completed


Properties will be evaluated at   0.000000,   0.000000,   0.000000 [a0]

Properties computed using the SCF density matrix

  Nuclear Dipole Moment: [e a0]
     X: -1370.1231      Y:  -846.2957      Z:    35.8067

  Electronic Dipole Moment: [e a0]
     X:  1370.1231      Y:   846.2957      Z:   -35.8067

  Dipole Moment: [e a0]
     X:     0.0000      Y:     0.0000      Z:    -0.0000     Total:     0.0000

  Dipole Moment: [D]
     X:     0.0000      Y:     0.0000      Z:    -0.0000     Total:     0.0000


*** tstop() called on atl1-1-01-015-9-l.pace.gatech.edu at Mon Nov 29 16:10:55 2021
Module time:
	user time   =      26.22 seconds =       0.44 minutes
	system time =       1.02 seconds =       0.02 minutes
	total time  =         14 seconds =       0.23 minutes
Total time:
	user time   =      26.22 seconds =       0.44 minutes
	system time =       1.02 seconds =       0.02 minutes
	total time  =         14 seconds =       0.23 minutes

  //>>>>>>>>>>>>>>>>>>>>>>>>>>>>>>>>>>>//
  //            Monomer A HF           //
  //<<<<<<<<<<<<<<<<<<<<<<<<<<<<<<<<<<<//


*** tstart() called on atl1-1-01-015-9-l.pace.gatech.edu
*** at Mon Nov 29 16:10:55 2021

   => Loading Basis Set <=

    Name: AUG-CC-PVDZ
    Role: ORBITAL
    Keyword: BASIS
    atoms 1-2, 11-12  entry N          line   218 file /storage/home/hhive1/csargent30/data/miniconda3/envs/psi4/share/psi4/basis/aug-cc-pvdz.gbs
    atoms 3-6, 13-16  entry H          line    40 file /storage/home/hhive1/csargent30/data/miniconda3/envs/psi4/share/psi4/basis/aug-cc-pvdz.gbs
    atoms 7-10, 17-20 entry C          line   182 file /storage/home/hhive1/csargent30/data/miniconda3/envs/psi4/share/psi4/basis/aug-cc-pvdz.gbs


         ---------------------------------------------------------
                                   SCF
               by Justin Turney, Rob Parrish, Andy Simmonett
                          and Daniel G. A. Smith
                              RHF Reference
                        2 Threads,   6675 MiB Core
         ---------------------------------------------------------

  ==> Geometry <==

    Molecular point group: c1
    Full point group: C1

    Geometry (in Bohr), charge = 0, multiplicity = 1:

       Center              X                  Y                   Z               Mass
    ------------   -----------------  -----------------  -----------------  -----------------
         N           -1.330847580000     0.980326580000     0.426270370000    14.003074004430
         N            3.953773330000     0.980326580000     0.426270370000    14.003074004430
         H            3.567136740000     4.352185690000    -0.942309730000     1.007825032230
         H           -0.944210980000     4.352185690000    -0.942309730000     1.007825032230
         H           -0.944210980000    -2.391532530000     1.794850470000     1.007825032230
         H            3.567136740000    -2.391532530000     1.794850470000     1.007825032230
         C            2.622925760000     2.940979740000    -0.426270370000    12.000000000000
         C            0.000000000000     2.940979740000    -0.426270370000    12.000000000000
         C            0.000000000000    -0.980326580000     1.278811120000    12.000000000000
         C            2.622925760000    -0.980326580000     1.278811120000    12.000000000000
      Gh(N)         -36.575751600000   -21.130224980000     0.426270370000    14.003074004430
      Gh(N)         -31.291130690000   -21.130224980000     0.426270370000    14.003074004430
      Gh(H)         -31.677767280000   -17.758365870000    -0.942309730000     1.007825032230
      Gh(H)         -36.189115000000   -17.758365870000    -0.942309730000     1.007825032230
      Gh(H)         -36.189115000000   -24.502084090000     1.794850470000     1.007825032230
      Gh(H)         -31.677767280000   -24.502084090000     1.794850470000     1.007825032230
      Gh(C)         -32.621978260000   -19.169571820000    -0.426270370000    12.000000000000
      Gh(C)         -35.244904020000   -19.169571820000    -0.426270370000    12.000000000000
      Gh(C)         -35.244904020000   -23.090878140000     1.278811120000    12.000000000000
      Gh(C)         -32.621978260000   -23.090878140000     1.278811120000    12.000000000000

  Running in c1 symmetry.

  Rotational constants: A =      0.10053  B =      0.00047  C =      0.00047 [cm^-1]
  Rotational constants: A =   3013.83517  B =     14.02013  C =     13.96392 [MHz]
  Nuclear repulsion =  212.551731110485349

  Charge       = 0
  Multiplicity = 1
  Electrons    = 42
  Nalpha       = 21
  Nbeta        = 21

  ==> Algorithm <==

  SCF Algorithm Type is DF.
  DIIS enabled.
  MOM disabled.
  Fractional occupation disabled.
  Guess Type is SAD.
  Energy threshold   = 1.00e-10
  Density threshold  = 1.00e-10
  Integral threshold = 1.00e-12

  ==> Primary Basis <==

  Basis Set: AUG-CC-PVDZ
    Blend: AUG-CC-PVDZ
    Number of shells: 148
    Number of basis functions: 348
    Number of Cartesian functions: 372
    Spherical Harmonics?: true
    Max angular momentum: 2

   => Loading Basis Set <=

    Name: (AUG-CC-PVDZ AUX)
    Role: JKFIT
    Keyword: DF_BASIS_SCF
    atoms 1-2, 11-12  entry N          line   212 file /storage/home/hhive1/csargent30/data/miniconda3/envs/psi4/share/psi4/basis/aug-cc-pvdz-jkfit.gbs
    atoms 3-6, 13-16  entry H          line    70 file /storage/home/hhive1/csargent30/data/miniconda3/envs/psi4/share/psi4/basis/aug-cc-pvdz-jkfit.gbs
    atoms 7-10, 17-20 entry C          line   154 file /storage/home/hhive1/csargent30/data/miniconda3/envs/psi4/share/psi4/basis/aug-cc-pvdz-jkfit.gbs

  ==> Integral Setup <==

  ==> DiskDFJK: Density-Fitted J/K Matrices <==

    J tasked:                  Yes
    K tasked:                  Yes
    wK tasked:                  No
    OpenMP threads:              2
    Integrals threads:           2
    Memory [MiB]:             5006
    Algorithm:                Core
    Integral Cache:           LOAD
    Schwarz Cutoff:          1E-12
    Fitting Condition:       1E-10

   => Auxiliary Basis Set <=

  Basis Set: (AUG-CC-PVDZ AUX)
    Blend: AUG-CC-PVDZ-JKFIT
    Number of shells: 432
    Number of basis functions: 1288
    Number of Cartesian functions: 1492
    Spherical Harmonics?: true
    Max angular momentum: 3

  Minimum eigenvalue in the overlap matrix is 9.4898424162E-06.
  Reciprocal condition number of the overlap matrix is 7.4017659555E-07.
    Using symmetric orthogonalization.

  ==> Pre-Iterations <==

  SCF Guess: Superposition of Atomic Densities via on-the-fly atomic UHF (no occupation information).

   -------------------------
    Irrep   Nso     Nmo
   -------------------------
     A        348     348
   -------------------------
    Total     348     348
   -------------------------

  ==> Iterations <==

                           Total Energy        Delta E     RMS |[F,P]|

   @DF-RHF iter SAD:  -262.32523125796683   -2.62325e+02   0.00000e+00
   @DF-RHF iter   1:  -262.53940798231469   -2.14177e-01   1.11985e-03 DIIS
   @DF-RHF iter   2:  -262.62878837459539   -8.93804e-02   4.10664e-04 DIIS
   @DF-RHF iter   3:  -262.63862291916234   -9.83454e-03   1.28248e-04 DIIS
   @DF-RHF iter   4:  -262.63984767243738   -1.22475e-03   3.77599e-05 DIIS
   @DF-RHF iter   5:  -262.63993727289864   -8.96005e-05   7.55558e-06 DIIS
   @DF-RHF iter   6:  -262.63994382315911   -6.55026e-06   2.45264e-06 DIIS
   @DF-RHF iter   7:  -262.63994477553177   -9.52373e-07   6.40130e-07 DIIS
   @DF-RHF iter   8:  -262.63994484941981   -7.38880e-08   9.91693e-08 DIIS
   @DF-RHF iter   9:  -262.63994485140597   -1.98617e-09   1.88228e-08 DIIS
   @DF-RHF iter  10:  -262.63994485147668   -7.07132e-11   3.19151e-09 DIIS
   @DF-RHF iter  11:  -262.63994485147867   -1.98952e-12   5.22317e-10 DIIS
   @DF-RHF iter  12:  -262.63994485147833    3.41061e-13   9.54311e-11 DIIS
  Energy and wave function converged.


  ==> Post-Iterations <==

    Orbital Energies [Eh]
    ---------------------

    Doubly Occupied:

       1A    -15.598072     2A    -15.598053     3A    -11.274239
       4A    -11.274194     5A    -11.272975     6A    -11.272969
       7A     -1.313347     8A     -1.224176     9A     -1.076803
      10A     -0.922662    11A     -0.919282    12A     -0.760637
      13A     -0.738402    14A     -0.706214    15A     -0.647687
      16A     -0.580711    17A     -0.574369    18A     -0.497113
      19A     -0.434288    20A     -0.415855    21A     -0.359924

    Virtual:

      22A      0.022405    23A      0.034497    24A      0.039484
      25A      0.040739    26A      0.041150    27A      0.048384
      28A      0.058591    29A      0.058826    30A      0.067113
      31A      0.079651    32A      0.085022    33A      0.099419
      34A      0.100948    35A      0.103968    36A      0.108480
      37A      0.108821    38A      0.114201    39A      0.114951
      40A      0.122469    41A      0.123776    42A      0.125322
      43A      0.125562    44A      0.128661    45A      0.130913
      46A      0.132889    47A      0.134122    48A      0.152078
      49A      0.152996    50A      0.158199    51A      0.159313
      52A      0.161084    53A      0.161326    54A      0.163914
      55A      0.175179    56A      0.176716    57A      0.186918
      58A      0.197769    59A      0.203875    60A      0.203908
      61A      0.206630    62A      0.212538    63A      0.222354
      64A      0.233580    65A      0.239405    66A      0.250517
      67A      0.255188    68A      0.267756    69A      0.270746
      70A      0.278056    71A      0.287812    72A      0.293207
      73A      0.295748    74A      0.302294    75A      0.314832
      76A      0.320457    77A      0.320608    78A      0.328128
      79A      0.331270    80A      0.344086    81A      0.355428
      82A      0.357908    83A      0.364661    84A      0.380468
      85A      0.382582    86A      0.385604    87A      0.398891
      88A      0.401240    89A      0.409895    90A      0.419240
      91A      0.424919    92A      0.425453    93A      0.433925
      94A      0.437212    95A      0.441901    96A      0.452092
      97A      0.460624    98A      0.461073    99A      0.471483
     100A      0.476054   101A      0.478788   102A      0.492140
     103A      0.504862   104A      0.507792   105A      0.514914
     106A      0.523735   107A      0.524547   108A      0.528668
     109A      0.535702   110A      0.554577   111A      0.557812
     112A      0.561483   113A      0.564463   114A      0.570535
     115A      0.581874   116A      0.587535   117A      0.591506
     118A      0.593799   119A      0.595978   120A      0.608929
     121A      0.615108   122A      0.620127   123A      0.636332
     124A      0.643517   125A      0.644321   126A      0.649324
     127A      0.651458   128A      0.679382   129A      0.685136
     130A      0.685283   131A      0.687758   132A      0.689932
     133A      0.690342   134A      0.694828   135A      0.703829
     136A      0.719859   137A      0.728361   138A      0.746558
     139A      0.746756   140A      0.754817   141A      0.766965
     142A      0.775649   143A      0.781406   144A      0.793600
     145A      0.799815   146A      0.802710   147A      0.811061
     148A      0.811947   149A      0.819016   150A      0.824719
     151A      0.831071   152A      0.847513   153A      0.848029
     154A      0.849152   155A      0.868574   156A      0.880544
     157A      0.886410   158A      0.888117   159A      0.894682
     160A      0.906072   161A      0.929081   162A      0.929272
     163A      0.939466   164A      0.947659   165A      0.949307
     166A      0.970748   167A      0.976901   168A      0.986603
     169A      0.996652   170A      0.998908   171A      1.013015
     172A      1.032388   173A      1.033370   174A      1.046897
     175A      1.051194   176A      1.076232   177A      1.089381
     178A      1.090244   179A      1.100445   180A      1.122199
     181A      1.124044   182A      1.130630   183A      1.134362
     184A      1.140232   185A      1.158740   186A      1.168557
     187A      1.170644   188A      1.173565   189A      1.192174
     190A      1.193207   191A      1.200439   192A      1.222285
     193A      1.235416   194A      1.238804   195A      1.250994
     196A      1.307524   197A      1.309673   198A      1.318227
     199A      1.326380   200A      1.329577   201A      1.331148
     202A      1.346774   203A      1.389183   204A      1.414282
     205A      1.448355   206A      1.451526   207A      1.455426
     208A      1.479101   209A      1.486137   210A      1.487172
     211A      1.488075   212A      1.499211   213A      1.502846
     214A      1.518252   215A      1.572686   216A      1.574192
     217A      1.587836   218A      1.635982   219A      1.640505
     220A      1.648219   221A      1.659209   222A      1.676552
     223A      1.698034   224A      1.716991   225A      1.746597
     226A      1.755104   227A      1.783762   228A      1.815727
     229A      1.893323   230A      1.916137   231A      1.964829
     232A      1.987674   233A      2.031202   234A      2.070197
     235A      2.091548   236A      2.101028   237A      2.102734
     238A      2.119414   239A      2.142953   240A      2.156647
     241A      2.159160   242A      2.163355   243A      2.190488
     244A      2.193301   245A      2.194830   246A      2.200380
     247A      2.202410   248A      2.227626   249A      2.234745
     250A      2.241173   251A      2.249631   252A      2.309986
     253A      2.312761   254A      2.319517   255A      2.355229
     256A      2.384775   257A      2.419180   258A      2.430957
     259A      2.435383   260A      2.438136   261A      2.438977
     262A      2.472647   263A      2.486695   264A      2.498292
     265A      2.519379   266A      2.522395   267A      2.525038
     268A      2.545966   269A      2.568298   270A      2.584766
     271A      2.592343   272A      2.606266   273A      2.625943
     274A      2.665224   275A      2.675409   276A      2.686395
     277A      2.713985   278A      2.716868   279A      2.718591
     280A      2.726621   281A      2.767904   282A      2.844014
     283A      2.865761   284A      2.904007   285A      2.939196
     286A      2.947197   287A      2.955721   288A      2.973311
     289A      3.001855   290A      3.017872   291A      3.032186
     292A      3.058301   293A      3.065201   294A      3.094137
     295A      3.113840   296A      3.220316   297A      3.245700
     298A      3.255980   299A      3.284880   300A      3.289651
     301A      3.321932   302A      3.337711   303A      3.340458
     304A      3.348630   305A      3.351352   306A      3.366140
     307A      3.412601   308A      3.413367   309A      3.470756
     310A      3.501957   311A      3.514920   312A      3.521363
     313A      3.590655   314A      3.604438   315A      3.605645
     316A      3.627769   317A      3.700485   318A      3.818926
     319A      3.830689   320A      3.940970   321A      3.969098
     322A      3.977236   323A      4.011405   324A      4.194759
     325A      4.242252   326A      4.253485   327A      4.441990
     328A      4.546831   329A      4.579278   330A      4.867640
     331A      4.976145   332A      5.057854   333A      5.261713
     334A      5.316542   335A      5.630200   336A      5.691326
     337A      5.827149   338A      5.952635   339A      6.283830
     340A      6.306892   341A      6.453769   342A      6.631203
     343A     18.125720   344A     18.207982   345A     19.017577
     346A     19.343002   347A     25.287062   348A     25.374782

    Final Occupation by Irrep:
              A
    DOCC [    21 ]

  @DF-RHF Final Energy:  -262.63994485147833

   => Energetics <=

    Nuclear Repulsion Energy =            212.5517311104853491
    One-Electron Energy =                -775.4594096395328506
    Two-Electron Energy =                 300.2677336775691970
    Total Energy =                       -262.6399448514783330

Computation Completed


Properties will be evaluated at   0.000000,   0.000000,   0.000000 [a0]

Properties computed using the SCF density matrix

  Nuclear Dipole Moment: [e a0]
     X:    55.0814      Y:    41.1737      Z:    17.9034

  Electronic Dipole Moment: [e a0]
     X:   -55.0814      Y:   -41.1737      Z:   -17.9034

  Dipole Moment: [e a0]
     X:    -0.0000      Y:     0.0000      Z:    -0.0000     Total:     0.0000

  Dipole Moment: [D]
     X:    -0.0000      Y:     0.0000      Z:    -0.0000     Total:     0.0000


*** tstop() called on atl1-1-01-015-9-l.pace.gatech.edu at Mon Nov 29 16:11:04 2021
Module time:
	user time   =      15.91 seconds =       0.27 minutes
	system time =       0.46 seconds =       0.01 minutes
	total time  =          9 seconds =       0.15 minutes
Total time:
	user time   =      42.15 seconds =       0.70 minutes
	system time =       1.48 seconds =       0.02 minutes
	total time  =         23 seconds =       0.38 minutes

  //>>>>>>>>>>>>>>>>>>>>>>>>>>>>>>>>>>>//
  //            Monomer B HF           //
  //<<<<<<<<<<<<<<<<<<<<<<<<<<<<<<<<<<<//


*** tstart() called on atl1-1-01-015-9-l.pace.gatech.edu
*** at Mon Nov 29 16:11:04 2021

   => Loading Basis Set <=

    Name: AUG-CC-PVDZ
    Role: ORBITAL
    Keyword: BASIS
    atoms 1-2, 11-12  entry N          line   218 file /storage/home/hhive1/csargent30/data/miniconda3/envs/psi4/share/psi4/basis/aug-cc-pvdz.gbs
    atoms 3-6, 13-16  entry H          line    40 file /storage/home/hhive1/csargent30/data/miniconda3/envs/psi4/share/psi4/basis/aug-cc-pvdz.gbs
    atoms 7-10, 17-20 entry C          line   182 file /storage/home/hhive1/csargent30/data/miniconda3/envs/psi4/share/psi4/basis/aug-cc-pvdz.gbs


         ---------------------------------------------------------
                                   SCF
               by Justin Turney, Rob Parrish, Andy Simmonett
                          and Daniel G. A. Smith
                              RHF Reference
                        2 Threads,   6675 MiB Core
         ---------------------------------------------------------

  ==> Geometry <==

    Molecular point group: c1
    Full point group: C1

    Geometry (in Bohr), charge = 0, multiplicity = 1:

       Center              X                  Y                   Z               Mass
    ------------   -----------------  -----------------  -----------------  -----------------
      Gh(N)          -1.330847580000     0.980326580000     0.426270370000    14.003074004430
      Gh(N)           3.953773330000     0.980326580000     0.426270370000    14.003074004430
      Gh(H)           3.567136740000     4.352185690000    -0.942309730000     1.007825032230
      Gh(H)          -0.944210980000     4.352185690000    -0.942309730000     1.007825032230
      Gh(H)          -0.944210980000    -2.391532530000     1.794850470000     1.007825032230
      Gh(H)           3.567136740000    -2.391532530000     1.794850470000     1.007825032230
      Gh(C)           2.622925760000     2.940979740000    -0.426270370000    12.000000000000
      Gh(C)           0.000000000000     2.940979740000    -0.426270370000    12.000000000000
      Gh(C)           0.000000000000    -0.980326580000     1.278811120000    12.000000000000
      Gh(C)           2.622925760000    -0.980326580000     1.278811120000    12.000000000000
         N          -36.575751600000   -21.130224980000     0.426270370000    14.003074004430
         N          -31.291130690000   -21.130224980000     0.426270370000    14.003074004430
         H          -31.677767280000   -17.758365870000    -0.942309730000     1.007825032230
         H          -36.189115000000   -17.758365870000    -0.942309730000     1.007825032230
         H          -36.189115000000   -24.502084090000     1.794850470000     1.007825032230
         H          -31.677767280000   -24.502084090000     1.794850470000     1.007825032230
         C          -32.621978260000   -19.169571820000    -0.426270370000    12.000000000000
         C          -35.244904020000   -19.169571820000    -0.426270370000    12.000000000000
         C          -35.244904020000   -23.090878140000     1.278811120000    12.000000000000
         C          -32.621978260000   -23.090878140000     1.278811120000    12.000000000000

  Running in c1 symmetry.

  Rotational constants: A =      0.10053  B =      0.00047  C =      0.00047 [cm^-1]
  Rotational constants: A =   3013.83517  B =     14.02013  C =     13.96392 [MHz]
  Nuclear repulsion =  212.551731110485349

  Charge       = 0
  Multiplicity = 1
  Electrons    = 42
  Nalpha       = 21
  Nbeta        = 21

  ==> Algorithm <==

  SCF Algorithm Type is DF.
  DIIS enabled.
  MOM disabled.
  Fractional occupation disabled.
  Guess Type is SAD.
  Energy threshold   = 1.00e-10
  Density threshold  = 1.00e-10
  Integral threshold = 1.00e-12

  ==> Primary Basis <==

  Basis Set: AUG-CC-PVDZ
    Blend: AUG-CC-PVDZ
    Number of shells: 148
    Number of basis functions: 348
    Number of Cartesian functions: 372
    Spherical Harmonics?: true
    Max angular momentum: 2

   => Loading Basis Set <=

    Name: (AUG-CC-PVDZ AUX)
    Role: JKFIT
    Keyword: DF_BASIS_SCF
    atoms 1-2, 11-12  entry N          line   212 file /storage/home/hhive1/csargent30/data/miniconda3/envs/psi4/share/psi4/basis/aug-cc-pvdz-jkfit.gbs
    atoms 3-6, 13-16  entry H          line    70 file /storage/home/hhive1/csargent30/data/miniconda3/envs/psi4/share/psi4/basis/aug-cc-pvdz-jkfit.gbs
    atoms 7-10, 17-20 entry C          line   154 file /storage/home/hhive1/csargent30/data/miniconda3/envs/psi4/share/psi4/basis/aug-cc-pvdz-jkfit.gbs

  ==> Integral Setup <==

  ==> DiskDFJK: Density-Fitted J/K Matrices <==

    J tasked:                  Yes
    K tasked:                  Yes
    wK tasked:                  No
    OpenMP threads:              2
    Integrals threads:           2
    Memory [MiB]:             5006
    Algorithm:                Core
    Integral Cache:           LOAD
    Schwarz Cutoff:          1E-12
    Fitting Condition:       1E-10

   => Auxiliary Basis Set <=

  Basis Set: (AUG-CC-PVDZ AUX)
    Blend: AUG-CC-PVDZ-JKFIT
    Number of shells: 432
    Number of basis functions: 1288
    Number of Cartesian functions: 1492
    Spherical Harmonics?: true
    Max angular momentum: 3

  Minimum eigenvalue in the overlap matrix is 9.4898424162E-06.
  Reciprocal condition number of the overlap matrix is 7.4017659555E-07.
    Using symmetric orthogonalization.

  ==> Pre-Iterations <==

  SCF Guess: Superposition of Atomic Densities via on-the-fly atomic UHF (no occupation information).

   -------------------------
    Irrep   Nso     Nmo
   -------------------------
     A        348     348
   -------------------------
    Total     348     348
   -------------------------

  ==> Iterations <==

                           Total Energy        Delta E     RMS |[F,P]|

   @DF-RHF iter SAD:  -262.32523125755273   -2.62325e+02   0.00000e+00
   @DF-RHF iter   1:  -262.53940798186989   -2.14177e-01   1.11985e-03 DIIS
   @DF-RHF iter   2:  -262.62878837414274   -8.93804e-02   4.10664e-04 DIIS
   @DF-RHF iter   3:  -262.63862291870953   -9.83454e-03   1.28248e-04 DIIS
   @DF-RHF iter   4:  -262.63984767198440   -1.22475e-03   3.77599e-05 DIIS
   @DF-RHF iter   5:  -262.63993727244599   -8.96005e-05   7.55558e-06 DIIS
   @DF-RHF iter   6:  -262.63994382270545   -6.55026e-06   2.45264e-06 DIIS
   @DF-RHF iter   7:  -262.63994477507970   -9.52374e-07   6.40130e-07 DIIS
   @DF-RHF iter   8:  -262.63994484896705   -7.38873e-08   9.91693e-08 DIIS
   @DF-RHF iter   9:  -262.63994485095350   -1.98645e-09   1.88228e-08 DIIS
   @DF-RHF iter  10:  -262.63994485102336   -6.98606e-11   3.19151e-09 DIIS
   @DF-RHF iter  11:  -262.63994485102637   -3.01270e-12   5.22318e-10 DIIS
   @DF-RHF iter  12:  -262.63994485102586    5.11591e-13   9.54434e-11 DIIS
  Energy and wave function converged.


  ==> Post-Iterations <==

    Orbital Energies [Eh]
    ---------------------

    Doubly Occupied:

       1A    -15.598072     2A    -15.598053     3A    -11.274239
       4A    -11.274194     5A    -11.272975     6A    -11.272969
       7A     -1.313347     8A     -1.224176     9A     -1.076803
      10A     -0.922662    11A     -0.919282    12A     -0.760637
      13A     -0.738402    14A     -0.706214    15A     -0.647687
      16A     -0.580711    17A     -0.574369    18A     -0.497113
      19A     -0.434288    20A     -0.415855    21A     -0.359924

    Virtual:

      22A      0.022405    23A      0.034497    24A      0.039484
      25A      0.040739    26A      0.041150    27A      0.048384
      28A      0.058591    29A      0.058826    30A      0.067113
      31A      0.079651    32A      0.085022    33A      0.099419
      34A      0.100948    35A      0.103968    36A      0.108480
      37A      0.108821    38A      0.114201    39A      0.114951
      40A      0.122469    41A      0.123776    42A      0.125322
      43A      0.125562    44A      0.128661    45A      0.130913
      46A      0.132889    47A      0.134122    48A      0.152078
      49A      0.152996    50A      0.158199    51A      0.159313
      52A      0.161084    53A      0.161326    54A      0.163914
      55A      0.175179    56A      0.176716    57A      0.186918
      58A      0.197769    59A      0.203875    60A      0.203908
      61A      0.206630    62A      0.212538    63A      0.222354
      64A      0.233580    65A      0.239405    66A      0.250517
      67A      0.255188    68A      0.267756    69A      0.270746
      70A      0.278056    71A      0.287812    72A      0.293207
      73A      0.295749    74A      0.302294    75A      0.314832
      76A      0.320457    77A      0.320608    78A      0.328128
      79A      0.331270    80A      0.344086    81A      0.355428
      82A      0.357908    83A      0.364661    84A      0.380468
      85A      0.382583    86A      0.385604    87A      0.398891
      88A      0.401240    89A      0.409895    90A      0.419240
      91A      0.424919    92A      0.425453    93A      0.433925
      94A      0.437212    95A      0.441901    96A      0.452092
      97A      0.460624    98A      0.461073    99A      0.471483
     100A      0.476054   101A      0.478788   102A      0.492140
     103A      0.504862   104A      0.507792   105A      0.514914
     106A      0.523735   107A      0.524547   108A      0.528668
     109A      0.535702   110A      0.554577   111A      0.557812
     112A      0.561483   113A      0.564463   114A      0.570535
     115A      0.581874   116A      0.587535   117A      0.591506
     118A      0.593799   119A      0.595978   120A      0.608929
     121A      0.615108   122A      0.620127   123A      0.636332
     124A      0.643517   125A      0.644321   126A      0.649324
     127A      0.651458   128A      0.679382   129A      0.685136
     130A      0.685283   131A      0.687758   132A      0.689932
     133A      0.690342   134A      0.694828   135A      0.703829
     136A      0.719859   137A      0.728361   138A      0.746558
     139A      0.746756   140A      0.754817   141A      0.766965
     142A      0.775649   143A      0.781406   144A      0.793600
     145A      0.799815   146A      0.802710   147A      0.811061
     148A      0.811947   149A      0.819016   150A      0.824719
     151A      0.831071   152A      0.847513   153A      0.848029
     154A      0.849152   155A      0.868574   156A      0.880544
     157A      0.886410   158A      0.888117   159A      0.894682
     160A      0.906072   161A      0.929081   162A      0.929272
     163A      0.939466   164A      0.947659   165A      0.949307
     166A      0.970748   167A      0.976901   168A      0.986603
     169A      0.996652   170A      0.998908   171A      1.013015
     172A      1.032388   173A      1.033370   174A      1.046897
     175A      1.051194   176A      1.076232   177A      1.089381
     178A      1.090244   179A      1.100445   180A      1.122199
     181A      1.124044   182A      1.130630   183A      1.134362
     184A      1.140232   185A      1.158740   186A      1.168557
     187A      1.170644   188A      1.173565   189A      1.192174
     190A      1.193207   191A      1.200439   192A      1.222285
     193A      1.235416   194A      1.238804   195A      1.250994
     196A      1.307524   197A      1.309674   198A      1.318227
     199A      1.326380   200A      1.329577   201A      1.331148
     202A      1.346774   203A      1.389183   204A      1.414282
     205A      1.448355   206A      1.451526   207A      1.455426
     208A      1.479101   209A      1.486137   210A      1.487172
     211A      1.488075   212A      1.499211   213A      1.502846
     214A      1.518252   215A      1.572686   216A      1.574192
     217A      1.587836   218A      1.635982   219A      1.640505
     220A      1.648219   221A      1.659209   222A      1.676552
     223A      1.698034   224A      1.716991   225A      1.746597
     226A      1.755104   227A      1.783762   228A      1.815727
     229A      1.893323   230A      1.916137   231A      1.964829
     232A      1.987674   233A      2.031202   234A      2.070197
     235A      2.091548   236A      2.101028   237A      2.102734
     238A      2.119414   239A      2.142953   240A      2.156647
     241A      2.159160   242A      2.163355   243A      2.190488
     244A      2.193301   245A      2.194830   246A      2.200380
     247A      2.202410   248A      2.227626   249A      2.234745
     250A      2.241173   251A      2.249631   252A      2.309986
     253A      2.312761   254A      2.319517   255A      2.355229
     256A      2.384775   257A      2.419180   258A      2.430957
     259A      2.435383   260A      2.438136   261A      2.438977
     262A      2.472647   263A      2.486695   264A      2.498292
     265A      2.519379   266A      2.522395   267A      2.525038
     268A      2.545966   269A      2.568298   270A      2.584766
     271A      2.592343   272A      2.606266   273A      2.625943
     274A      2.665224   275A      2.675409   276A      2.686395
     277A      2.713985   278A      2.716868   279A      2.718591
     280A      2.726621   281A      2.767904   282A      2.844014
     283A      2.865761   284A      2.904007   285A      2.939196
     286A      2.947197   287A      2.955721   288A      2.973311
     289A      3.001855   290A      3.017872   291A      3.032186
     292A      3.058301   293A      3.065201   294A      3.094137
     295A      3.113840   296A      3.220316   297A      3.245700
     298A      3.255980   299A      3.284880   300A      3.289651
     301A      3.321932   302A      3.337711   303A      3.340458
     304A      3.348630   305A      3.351352   306A      3.366140
     307A      3.412601   308A      3.413367   309A      3.470756
     310A      3.501957   311A      3.514920   312A      3.521363
     313A      3.590655   314A      3.604438   315A      3.605645
     316A      3.627769   317A      3.700485   318A      3.818926
     319A      3.830689   320A      3.940970   321A      3.969098
     322A      3.977236   323A      4.011405   324A      4.194759
     325A      4.242252   326A      4.253485   327A      4.441990
     328A      4.546831   329A      4.579278   330A      4.867640
     331A      4.976145   332A      5.057854   333A      5.261713
     334A      5.316542   335A      5.630200   336A      5.691326
     337A      5.827149   338A      5.952635   339A      6.283830
     340A      6.306892   341A      6.453769   342A      6.631203
     343A     18.125720   344A     18.207982   345A     19.017577
     346A     19.343002   347A     25.287062   348A     25.374782

    Final Occupation by Irrep:
              A
    DOCC [    21 ]

  @DF-RHF Final Energy:  -262.63994485102586

   => Energetics <=

    Nuclear Repulsion Energy =            212.5517311104853491
    One-Electron Energy =                -775.4594096395360339
    Two-Electron Energy =                 300.2677336780248538
    Total Energy =                       -262.6399448510258594

Computation Completed


Properties will be evaluated at   0.000000,   0.000000,   0.000000 [a0]

Properties computed using the SCF density matrix

  Nuclear Dipole Moment: [e a0]
     X: -1425.2045      Y:  -887.4694      Z:    17.9034

  Electronic Dipole Moment: [e a0]
     X:  1425.2045      Y:   887.4694      Z:   -17.9034

  Dipole Moment: [e a0]
     X:     0.0000      Y:    -0.0000      Z:     0.0000     Total:     0.0000

  Dipole Moment: [D]
     X:     0.0000      Y:    -0.0000      Z:     0.0000     Total:     0.0000


*** tstop() called on atl1-1-01-015-9-l.pace.gatech.edu at Mon Nov 29 16:11:13 2021
Module time:
	user time   =      15.81 seconds =       0.26 minutes
	system time =       0.48 seconds =       0.01 minutes
	total time  =          9 seconds =       0.15 minutes
Total time:
	user time   =      57.97 seconds =       0.97 minutes
	system time =       1.97 seconds =       0.03 minutes
	total time  =         32 seconds =       0.53 minutes
  Constructing Basis Sets for SAPT...

   => Loading Basis Set <=

    Name: (AUG-CC-PVDZ AUX)
    Role: RIFIT
    Keyword: DF_BASIS_SAPT
    atoms 1-2, 11-12  entry N          line   158 file /storage/home/hhive1/csargent30/data/miniconda3/envs/psi4/share/psi4/basis/aug-cc-pvdz-ri.gbs
    atoms 3-6, 13-16  entry H          line    30 file /storage/home/hhive1/csargent30/data/miniconda3/envs/psi4/share/psi4/basis/aug-cc-pvdz-ri.gbs
    atoms 7-10, 17-20 entry C          line   112 file /storage/home/hhive1/csargent30/data/miniconda3/envs/psi4/share/psi4/basis/aug-cc-pvdz-ri.gbs


  //>>>>>>>>>>>>>>>>>>>>>>>>>>>>>>>>>>>//
  //               SAPT0               //
  //<<<<<<<<<<<<<<<<<<<<<<<<<<<<<<<<<<<//


*** tstart() called on atl1-1-01-015-9-l.pace.gatech.edu
*** at Mon Nov 29 16:11:13 2021

        SAPT0
    Ed Hohenstein
     6 June 2009

      Orbital Information
  --------------------------
    NSO        =       348
    NMO        =       348
    NRI        =      1048
    NOCC A     =        21
    NOCC B     =        21
    FOCC A     =         6
    FOCC B     =         6
    NVIR A     =       327
    NVIR B     =       327

    Elst10,r            =    -0.000001850548 [Eh]
    Exch10              =     0.000000000000 [Eh]
    Exch10 (S^2)        =     0.000000000000 [Eh]

    Iter     Energy [mEh]          dE [mEh]         Residual      Time [s]
       1      -0.00000116       0.000001165       0.012261943             1
       2      -0.00000104      -0.000000121       0.002540440             1
       3      -0.00000116       0.000000121       0.000826429             2
       4      -0.00000117       0.000000003       0.000539813             2
       5      -0.00000116      -0.000000005       0.000177125             2
       6      -0.00000116      -0.000000000       0.000053405             3
       7      -0.00000116       0.000000000       0.000021729             3
       8      -0.00000116       0.000000000       0.000006808             3
       9      -0.00000116      -0.000000000       0.000002664             4
      10      -0.00000116      -0.000000000       0.000000831             4

    CHF Iterations converged


    Iter     Energy [mEh]          dE [mEh]         Residual      Time [s]
       1      -0.00000116       0.000001165       0.012261943             1
       2      -0.00000104      -0.000000121       0.002540440             1
       3      -0.00000116       0.000000121       0.000826429             1
       4      -0.00000117       0.000000003       0.000539813             2
       5      -0.00000116      -0.000000005       0.000177125             2
       6      -0.00000116      -0.000000000       0.000053405             2
       7      -0.00000116       0.000000000       0.000021729             3
       8      -0.00000116       0.000000000       0.000006808             3
       9      -0.00000116      -0.000000000       0.000002664             4
      10      -0.00000116      -0.000000000       0.000000831             4

    CHF Iterations converged

    Ind20,r (A<-B)      =    -0.000000001163 [Eh]
    Ind20,r (B<-A)      =    -0.000000001163 [Eh]
    Ind20,r             =    -0.000000002325 [Eh]
    Exch-Ind20,r (A<-B) =     0.000000000000 [Eh]
    Exch-Ind20,r (B<-A) =     0.000000000000 [Eh]
    Exch-Ind20,r        =     0.000000000000 [Eh]
    Disp20              =    -0.000000367291 [Eh]
    Disp20 (SS)         =    -0.000000183645 [Eh]
    Disp20 (OS)         =    -0.000000183645 [Eh]
    Exch-Disp20         =     0.000000000000 [Eh]
    Exch-Disp20 (SS)    =     0.000000000000 [Eh]
    Exch-Disp20 (OS)    =     0.000000000000 [Eh]

    SAPT Results
  --------------------------------------------------------------------------------------------------------
    Electrostatics                 -0.00185055 [mEh]      -0.00116124 [kcal/mol]      -0.00485861 [kJ/mol]
      Elst10,r                     -0.00185055 [mEh]      -0.00116124 [kcal/mol]      -0.00485861 [kJ/mol]

    Exchange                        0.00000000 [mEh]       0.00000000 [kcal/mol]       0.00000000 [kJ/mol]
      Exch10                        0.00000000 [mEh]       0.00000000 [kcal/mol]       0.00000000 [kJ/mol]
      Exch10(S^2)                   0.00000000 [mEh]       0.00000000 [kcal/mol]       0.00000000 [kJ/mol]

    Induction                       0.00001207 [mEh]       0.00000757 [kcal/mol]       0.00003169 [kJ/mol]
      Ind20,r                      -0.00000233 [mEh]      -0.00000146 [kcal/mol]      -0.00000610 [kJ/mol]
      Exch-Ind20,r                  0.00000000 [mEh]       0.00000000 [kcal/mol]       0.00000000 [kJ/mol]
      delta HF,r (2)                0.00001440 [mEh]       0.00000903 [kcal/mol]       0.00003779 [kJ/mol]

    Dispersion                     -0.00036729 [mEh]      -0.00023048 [kcal/mol]      -0.00096432 [kJ/mol]
      Disp20                       -0.00036729 [mEh]      -0.00023048 [kcal/mol]      -0.00096432 [kJ/mol]
      Exch-Disp20                   0.00000000 [mEh]       0.00000000 [kcal/mol]       0.00000000 [kJ/mol]
      Disp20 (SS)                  -0.00018365 [mEh]      -0.00011524 [kcal/mol]      -0.00048216 [kJ/mol]
      Disp20 (OS)                  -0.00018365 [mEh]      -0.00011524 [kcal/mol]      -0.00048216 [kJ/mol]
      Exch-Disp20 (SS)              0.00000000 [mEh]       0.00000000 [kcal/mol]       0.00000000 [kJ/mol]
      Exch-Disp20 (OS)              0.00000000 [mEh]       0.00000000 [kcal/mol]       0.00000000 [kJ/mol]

  Total HF                         -0.00183848 [mEh]      -0.00115366 [kcal/mol]      -0.00482692 [kJ/mol]
  Total SAPT0                      -0.00220577 [mEh]      -0.00138414 [kcal/mol]      -0.00579124 [kJ/mol]

  Special recipe for scaled SAPT0 (see Manual):
    Electrostatics sSAPT0          -0.00185055 [mEh]      -0.00116124 [kcal/mol]      -0.00485861 [kJ/mol]
    Exchange sSAPT0                 0.00000000 [mEh]       0.00000000 [kcal/mol]       0.00000000 [kJ/mol]
    Induction sSAPT0                0.00001207 [mEh]       0.00000757 [kcal/mol]       0.00003169 [kJ/mol]
    Dispersion sSAPT0              -0.00036729 [mEh]      -0.00023048 [kcal/mol]      -0.00096432 [kJ/mol]
  Total sSAPT0                     -0.00220577 [mEh]      -0.00138414 [kcal/mol]      -0.00579124 [kJ/mol]
  --------------------------------------------------------------------------------------------------------

*** tstop() called on atl1-1-01-015-9-l.pace.gatech.edu at Mon Nov 29 16:11:39 2021
Module time:
	user time   =      38.75 seconds =       0.65 minutes
	system time =       8.59 seconds =       0.14 minutes
	total time  =         26 seconds =       0.43 minutes
Total time:
	user time   =      96.98 seconds =       1.62 minutes
	system time =      10.57 seconds =       0.18 minutes
	total time  =         58 seconds =       0.97 minutes


Warning! sapt0 does not have an associated derived wavefunction.The returned wavefunction is the dimer SCF wavefunction.


    Psi4 stopped on: Monday, 29 November 2021 04:11PM
    Psi4 wall time for execution: 0:00:58.56

*** Psi4 exiting successfully. Buy a developer a beer!
