
    -----------------------------------------------------------------------
          Psi4: An Open-Source Ab Initio Electronic Structure Package
                               Psi4 1.4.1 release

                         Git: Rev {HEAD} cd00f19


    D. G. A. Smith, L. A. Burns, A. C. Simmonett, R. M. Parrish,
    M. C. Schieber, R. Galvelis, P. Kraus, H. Kruse, R. Di Remigio,
    A. Alenaizan, A. M. James, S. Lehtola, J. P. Misiewicz, M. Scheurer,
    R. A. Shaw, J. B. Schriber, Y. Xie, Z. L. Glick, D. A. Sirianni,
    J. S. O'Brien, J. M. Waldrop, A. Kumar, E. G. Hohenstein,
    B. P. Pritchard, B. R. Brooks, H. F. Schaefer III, A. Yu. Sokolov,
    K. Patkowski, A. E. DePrince III, U. Bozkaya, R. A. King,
    F. A. Evangelista, J. M. Turney, T. D. Crawford, C. D. Sherrill,
    J. Chem. Phys. 152(18) 184108 (2020). https://doi.org/10.1063/5.0006002

                            Additional Code Authors
    E. T. Seidl, C. L. Janssen, E. F. Valeev, M. L. Leininger,
    J. F. Gonthier, R. M. Richard, H. R. McAlexander, M. Saitow, X. Wang,
    P. Verma, and M. H. Lechner

             Previous Authors, Complete List of Code Contributors,
                       and Citations for Specific Modules
    https://github.com/psi4/psi4/blob/master/codemeta.json
    https://github.com/psi4/psi4/graphs/contributors
    http://psicode.org/psi4manual/master/introduction.html#citing-psifour

    -----------------------------------------------------------------------


    Psi4 started on: Monday, 29 November 2021 04:10PM

    Process ID: 1930
    Host:       atl1-1-01-013-21-r.pace.gatech.edu
    PSIDATADIR: /storage/home/hhive1/csargent30/data/miniconda3/envs/psi4/share/psi4
    Memory:     500.0 MiB
    Threads:    2

  ==> Input File <==

--------------------------------------------------------------------------
# PSI4 file produced by CrystaLattE

# Generated from:               pyrazine.xyz
# Psithon input for N-mer:      2mer-0+86
# Number of atoms per monomer:  [10, 10]
# Number of replicas:           2
# COM priority:                 7.346042547553e-05
# Minimum COM separations:      12.635
# Separation priority:          1.475538807950e-04
# Minimum monomer separations:  10.014
# Cutoff priority:              7.797119345592e-06
# Nuclear repulsion energy:     498.8710728104812

memory 7 GB

molecule Dimer_0_86 {
  N           -1.33084758       0.98032658       0.42627037
  N            3.95377333       0.98032658       0.42627037
  H            3.56713674       4.35218569      -0.94230973
  H           -0.94421098       4.35218569      -0.94230973
  H           -0.94421098      -2.39153253       1.79485047
  H            3.56713674      -2.39153253       1.79485047
  C            2.62292576       2.94097974      -0.42627037
  C            0.00000000       2.94097974      -0.42627037
  C            0.00000000      -0.98032658       1.27881112
  C            2.62292576      -0.98032658       1.27881112
--
  N           -1.33084758      12.03560236     -20.73733942
  N            3.95377333      12.03560236     -20.73733942
  H            3.56713674      15.40746147     -22.10591952
  H           -0.94421098      15.40746147     -22.10591952
  H           -0.94421098       8.66374325     -19.36875932
  H            3.56713674       8.66374325     -19.36875932
  C            2.62292576      13.99625552     -21.58988017
  C            0.00000000      13.99625552     -21.58988017
  C            0.00000000      10.07494920     -19.88479867
  C            2.62292576      10.07494920     -19.88479867
units = au
no_com
no_reorient
}

set {
  e_convergence 10
  d_convergence 10
  scf_type df
  mp2_type df
  cc_type df
  freeze_core true
}

energy('sapt0/aug-cc-pvdz')

--------------------------------------------------------------------------

  Memory set to   6.519 GiB by Python driver.

Scratch directory: /tmp/

Scratch directory: /tmp/

  //>>>>>>>>>>>>>>>>>>>>>>>>>>>>>>>>>>>//
  //              Dimer HF             //
  //<<<<<<<<<<<<<<<<<<<<<<<<<<<<<<<<<<<//


*** tstart() called on atl1-1-01-013-21-r.pace.gatech.edu
*** at Mon Nov 29 16:10:40 2021

   => Loading Basis Set <=

    Name: AUG-CC-PVDZ
    Role: ORBITAL
    Keyword: BASIS
    atoms 1-2, 11-12  entry N          line   218 file /storage/home/hhive1/csargent30/data/miniconda3/envs/psi4/share/psi4/basis/aug-cc-pvdz.gbs
    atoms 3-6, 13-16  entry H          line    40 file /storage/home/hhive1/csargent30/data/miniconda3/envs/psi4/share/psi4/basis/aug-cc-pvdz.gbs
    atoms 7-10, 17-20 entry C          line   182 file /storage/home/hhive1/csargent30/data/miniconda3/envs/psi4/share/psi4/basis/aug-cc-pvdz.gbs


         ---------------------------------------------------------
                                   SCF
               by Justin Turney, Rob Parrish, Andy Simmonett
                          and Daniel G. A. Smith
                              RHF Reference
                        2 Threads,   6675 MiB Core
         ---------------------------------------------------------

  ==> Geometry <==

    Molecular point group: c1
    Full point group: C1

    Geometry (in Bohr), charge = 0, multiplicity = 1:

       Center              X                  Y                   Z               Mass
    ------------   -----------------  -----------------  -----------------  -----------------
         N           -1.330847580000     0.980326580000     0.426270370000    14.003074004430
         N            3.953773330000     0.980326580000     0.426270370000    14.003074004430
         H            3.567136740000     4.352185690000    -0.942309730000     1.007825032230
         H           -0.944210980000     4.352185690000    -0.942309730000     1.007825032230
         H           -0.944210980000    -2.391532530000     1.794850470000     1.007825032230
         H            3.567136740000    -2.391532530000     1.794850470000     1.007825032230
         C            2.622925760000     2.940979740000    -0.426270370000    12.000000000000
         C            0.000000000000     2.940979740000    -0.426270370000    12.000000000000
         C            0.000000000000    -0.980326580000     1.278811120000    12.000000000000
         C            2.622925760000    -0.980326580000     1.278811120000    12.000000000000
         N           -1.330847580000    12.035602360000   -20.737339420000    14.003074004430
         N            3.953773330000    12.035602360000   -20.737339420000    14.003074004430
         H            3.567136740000    15.407461470000   -22.105919520000     1.007825032230
         H           -0.944210980000    15.407461470000   -22.105919520000     1.007825032230
         H           -0.944210980000     8.663743250000   -19.368759320000     1.007825032230
         H            3.567136740000     8.663743250000   -19.368759320000     1.007825032230
         C            2.622925760000    13.996255520000   -21.589880170000    12.000000000000
         C            0.000000000000    13.996255520000   -21.589880170000    12.000000000000
         C            0.000000000000    10.074949200000   -19.884798670000    12.000000000000
         C            2.622925760000    10.074949200000   -19.884798670000    12.000000000000

  Running in c1 symmetry.

  Rotational constants: A =      0.05930  B =      0.00129  C =      0.00127 [cm^-1]
  Rotational constants: A =   1777.66143  B =     38.58717  C =     38.18804 [MHz]
  Nuclear repulsion =  498.871072747960966

  Charge       = 0
  Multiplicity = 1
  Electrons    = 84
  Nalpha       = 42
  Nbeta        = 42

  ==> Algorithm <==

  SCF Algorithm Type is DF.
  DIIS enabled.
  MOM disabled.
  Fractional occupation disabled.
  Guess Type is SAD.
  Energy threshold   = 1.00e-10
  Density threshold  = 1.00e-10
  Integral threshold = 1.00e-12

  ==> Primary Basis <==

  Basis Set: AUG-CC-PVDZ
    Blend: AUG-CC-PVDZ
    Number of shells: 148
    Number of basis functions: 348
    Number of Cartesian functions: 372
    Spherical Harmonics?: true
    Max angular momentum: 2

   => Loading Basis Set <=

    Name: (AUG-CC-PVDZ AUX)
    Role: JKFIT
    Keyword: DF_BASIS_SCF
    atoms 1-2, 11-12  entry N          line   212 file /storage/home/hhive1/csargent30/data/miniconda3/envs/psi4/share/psi4/basis/aug-cc-pvdz-jkfit.gbs
    atoms 3-6, 13-16  entry H          line    70 file /storage/home/hhive1/csargent30/data/miniconda3/envs/psi4/share/psi4/basis/aug-cc-pvdz-jkfit.gbs
    atoms 7-10, 17-20 entry C          line   154 file /storage/home/hhive1/csargent30/data/miniconda3/envs/psi4/share/psi4/basis/aug-cc-pvdz-jkfit.gbs

  ==> Integral Setup <==

  ==> DiskDFJK: Density-Fitted J/K Matrices <==

    J tasked:                  Yes
    K tasked:                  Yes
    wK tasked:                  No
    OpenMP threads:              2
    Integrals threads:           2
    Memory [MiB]:             5006
    Algorithm:                Core
    Integral Cache:           SAVE
    Schwarz Cutoff:          1E-12
    Fitting Condition:       1E-10

   => Auxiliary Basis Set <=

  Basis Set: (AUG-CC-PVDZ AUX)
    Blend: AUG-CC-PVDZ-JKFIT
    Number of shells: 432
    Number of basis functions: 1288
    Number of Cartesian functions: 1492
    Spherical Harmonics?: true
    Max angular momentum: 3

  Minimum eigenvalue in the overlap matrix is 9.3126380733E-06.
  Reciprocal condition number of the overlap matrix is 7.2632641028E-07.
    Using symmetric orthogonalization.

  ==> Pre-Iterations <==

  SCF Guess: Superposition of Atomic Densities via on-the-fly atomic UHF (no occupation information).

   -------------------------
    Irrep   Nso     Nmo
   -------------------------
     A        348     348
   -------------------------
    Total     348     348
   -------------------------

  ==> Iterations <==

                           Total Energy        Delta E     RMS |[F,P]|

   @DF-RHF iter SAD:  -524.65046254639446   -5.24650e+02   0.00000e+00
   @DF-RHF iter   1:  -525.07882525673256   -4.28363e-01   1.58368e-03 DIIS
   @DF-RHF iter   2:  -525.25758590879343   -1.78761e-01   5.80714e-04 DIIS
   @DF-RHF iter   3:  -525.27725164847323   -1.96657e-02   1.81371e-04 DIIS
   @DF-RHF iter   4:  -525.27970117864186   -2.44953e-03   5.34084e-05 DIIS
   @DF-RHF iter   5:  -525.27988044114215   -1.79263e-04   1.06863e-05 DIIS
   @DF-RHF iter   6:  -525.27989354654949   -1.31054e-05   3.46910e-06 DIIS
   @DF-RHF iter   7:  -525.27989545206697   -1.90552e-06   9.05384e-07 DIIS
   @DF-RHF iter   8:  -525.27989559984940   -1.47782e-07   1.40746e-07 DIIS
   @DF-RHF iter   9:  -525.27989560382116   -3.97176e-09   2.96132e-08 DIIS
   @DF-RHF iter  10:  -525.27989560396236   -1.41199e-10   1.34035e-08 DIIS
   @DF-RHF iter  11:  -525.27989560397884   -1.64846e-11   2.79780e-09 DIIS
   @DF-RHF iter  12:  -525.27989560398032   -1.47793e-12   4.56403e-10 DIIS
   @DF-RHF iter  13:  -525.27989560397918    1.13687e-12   1.20040e-10 DIIS
   @DF-RHF iter  14:  -525.27989560398044   -1.25056e-12   4.29587e-11 DIIS
  Energy and wave function converged.


  ==> Post-Iterations <==

    Orbital Energies [Eh]
    ---------------------

    Doubly Occupied:

       1A    -15.598367     2A    -15.598367     3A    -15.598348
       4A    -15.598348     5A    -11.274533     6A    -11.274533
       7A    -11.274488     8A    -11.274488     9A    -11.273269
      10A    -11.273269    11A    -11.273263    12A    -11.273263
      13A     -1.313644    14A     -1.313644    15A     -1.224472
      16A     -1.224472    17A     -1.077098    18A     -1.077098
      19A     -0.922956    20A     -0.922955    21A     -0.919577
      22A     -0.919576    23A     -0.760931    24A     -0.760929
      25A     -0.738691    26A     -0.738691    27A     -0.706509
      28A     -0.706508    29A     -0.647980    30A     -0.647979
      31A     -0.581002    32A     -0.581002    33A     -0.574670
      34A     -0.574670    35A     -0.497405    36A     -0.497405
      37A     -0.434586    38A     -0.434586    39A     -0.416147
      40A     -0.416147    41A     -0.360226    42A     -0.360226

    Virtual:

      43A      0.030861    44A      0.035589    45A      0.038553
      46A      0.044311    47A      0.045885    48A      0.049676
      49A      0.056489    50A      0.061201    51A      0.066600
      52A      0.067053    53A      0.099048    54A      0.099151
      55A      0.100076    56A      0.101165    57A      0.113430
      58A      0.113686    59A      0.114072    60A      0.114769
      61A      0.122538    62A      0.124699    63A      0.125205
      64A      0.125551    65A      0.128007    66A      0.128872
      67A      0.131043    68A      0.133136    69A      0.152910
      70A      0.159202    71A      0.159344    72A      0.159870
      73A      0.162065    74A      0.163051    75A      0.165798
      76A      0.170647    77A      0.174584    78A      0.175802
      79A      0.186108    80A      0.188555    81A      0.203574
      82A      0.203605    83A      0.211876    84A      0.212760
      85A      0.249190    86A      0.251947    87A      0.267158
      88A      0.267904    89A      0.277077    90A      0.278421
      91A      0.286444    92A      0.287967    93A      0.292299
      94A      0.293949    95A      0.295791    96A      0.297112
      97A      0.314010    98A      0.315350    99A      0.319922
     100A      0.320832   101A      0.355385   102A      0.355888
     103A      0.357440   104A      0.357847   105A      0.364360
     106A      0.364406   107A      0.382086   108A      0.382777
     109A      0.397880   110A      0.399713   111A      0.409118
     112A      0.410551   113A      0.424876   114A      0.425790
     115A      0.432103   116A      0.433181   117A      0.437120
     118A      0.441320   119A      0.451500   120A      0.452361
     121A      0.471070   122A      0.471349   123A      0.491815
     124A      0.491930   125A      0.503905   126A      0.505751
     127A      0.514455   128A      0.514749   129A      0.523729
     130A      0.524889   131A      0.527323   132A      0.530104
     133A      0.553902   134A      0.554904   135A      0.569615
     136A      0.571421   137A      0.587186   138A      0.587399
     139A      0.591212   140A      0.591214   141A      0.593490
     142A      0.593531   143A      0.608625   144A      0.608730
     145A      0.643106   146A      0.643385   147A      0.643646
     148A      0.644651   149A      0.684615   150A      0.684939
     151A      0.687186   152A      0.687765   153A      0.689569
     154A      0.689725   155A      0.689778   156A      0.691162
     157A      0.694208   158A      0.695200   159A      0.703390
     160A      0.704135   161A      0.746171   162A      0.746428
     163A      0.754527   164A      0.754539   165A      0.766641
     166A      0.766718   167A      0.780659   168A      0.781968
     169A      0.799550   170A      0.799558   171A      0.802197
     172A      0.802815   173A      0.818672   174A      0.818780
     175A      0.830739   176A      0.830819   177A      0.847047
     178A      0.847591   179A      0.880244   180A      0.880271
     181A      0.886126   182A      0.886127   183A      0.894092
     184A      0.894863   185A      0.928977   186A      0.928980
     187A      0.938909   188A      0.939550   189A      0.948652
     190A      0.949665   191A      0.996319   192A      0.996433
     193A      0.998369   194A      0.999004   195A      1.012675
     196A      1.012836   197A      1.032898   198A      1.033407
     199A      1.050807   200A      1.051027   201A      1.089020
     202A      1.089191   203A      1.099870   204A      1.100556
     205A      1.121578   206A      1.122695   207A      1.123703
     208A      1.123799   209A      1.133950   210A      1.134366
     211A      1.157972   212A      1.159176   213A      1.173241
     214A      1.173293   215A      1.234973   216A      1.235449
     217A      1.238482   218A      1.238613   219A      1.309135
     220A      1.309741   221A      1.330740   222A      1.330993
     223A      1.413726   224A      1.414378   225A      1.451248
     226A      1.451260   227A      1.485864   228A      1.485881
     229A      1.487777   230A      1.487799   231A      1.498783
     232A      1.499188   233A      1.502283   234A      1.503025
     235A      1.517918   236A      1.518010   237A      1.572290
     238A      1.572441   239A      1.573236   240A      1.574856
     241A      1.586687   242A      1.589063   243A      1.635101
     244A      1.636467   245A      1.639794   246A      1.641102
     247A      1.647971   248A      1.648008   249A      1.676247
     250A      1.676275   251A      1.716682   252A      1.716689
     253A      1.746286   254A      1.746325   255A      1.754659
     256A      1.755043   257A      1.782817   258A      1.784518
     259A      1.815428   260A      1.815434   261A      1.893001
     262A      1.893058   263A      1.915741   264A      1.916012
     265A      1.964521   266A      1.964553   267A      1.987359
     268A      1.987407   269A      2.030731   270A      2.031191
     271A      2.091221   272A      2.091326   273A      2.100394
     274A      2.101195   275A      2.142652   276A      2.142678
     277A      2.163035   278A      2.163094   279A      2.190112
     280A      2.190397   281A      2.192535   282A      2.193771
     283A      2.200072   284A      2.200153   285A      2.202111
     286A      2.202158   287A      2.227260   288A      2.227409
     289A      2.312429   290A      2.312531   291A      2.354859
     292A      2.355095   293A      2.430551   294A      2.430807
     295A      2.438321   296A      2.439296   297A      2.519031
     298A      2.519146   299A      2.522059   300A      2.522179
     301A      2.584405   302A      2.584550   303A      2.605955
     304A      2.605999   305A      2.664644   306A      2.665314
     307A      2.675104   308A      2.675152   309A      2.685900
     310A      2.686523   311A      2.713277   312A      2.714259
     313A      2.718274   314A      2.718341   315A      2.843703
     316A      2.843740   317A      2.865468   318A      2.865475
     319A      2.938699   320A      2.939249   321A      3.001439
     322A      3.001744   323A      3.017517   324A      3.017647
     325A      3.031675   326A      3.032183   327A      3.093776
     328A      3.093928   329A      3.219129   330A      3.221666
     331A      3.255680   332A      3.255701   333A      3.284429
     334A      3.284911   335A      3.365752   336A      3.366010
     337A      3.412835   338A      3.413487   339A      3.514595
     340A      3.514683   341A      3.590381   342A      3.590384
     343A      3.627407   344A      3.627570   345A      3.976719
     346A      3.977276   347A      4.253142   348A      4.253257

    Final Occupation by Irrep:
              A
    DOCC [    42 ]

  @DF-RHF Final Energy:  -525.27989560398044

   => Energetics <=

    Nuclear Repulsion Energy =            498.8710727479609659
    One-Electron Energy =               -1698.4292953767567269
    Two-Electron Energy =                 674.2783270248152121
    Total Energy =                       -525.2798956039804352

Computation Completed


Properties will be evaluated at   0.000000,   0.000000,   0.000000 [a0]

Properties computed using the SCF density matrix

  Nuclear Dipole Moment: [e a0]
     X:   110.1629      Y:   546.6690      Z:  -853.0649

  Electronic Dipole Moment: [e a0]
     X:  -110.1629      Y:  -546.6690      Z:   853.0649

  Dipole Moment: [e a0]
     X:     0.0000      Y:     0.0000      Z:     0.0000     Total:     0.0000

  Dipole Moment: [D]
     X:     0.0000      Y:     0.0000      Z:     0.0000     Total:     0.0000


*** tstop() called on atl1-1-01-013-21-r.pace.gatech.edu at Mon Nov 29 16:10:55 2021
Module time:
	user time   =      27.41 seconds =       0.46 minutes
	system time =       1.05 seconds =       0.02 minutes
	total time  =         15 seconds =       0.25 minutes
Total time:
	user time   =      27.41 seconds =       0.46 minutes
	system time =       1.05 seconds =       0.02 minutes
	total time  =         15 seconds =       0.25 minutes

  //>>>>>>>>>>>>>>>>>>>>>>>>>>>>>>>>>>>//
  //            Monomer A HF           //
  //<<<<<<<<<<<<<<<<<<<<<<<<<<<<<<<<<<<//


*** tstart() called on atl1-1-01-013-21-r.pace.gatech.edu
*** at Mon Nov 29 16:10:55 2021

   => Loading Basis Set <=

    Name: AUG-CC-PVDZ
    Role: ORBITAL
    Keyword: BASIS
    atoms 1-2, 11-12  entry N          line   218 file /storage/home/hhive1/csargent30/data/miniconda3/envs/psi4/share/psi4/basis/aug-cc-pvdz.gbs
    atoms 3-6, 13-16  entry H          line    40 file /storage/home/hhive1/csargent30/data/miniconda3/envs/psi4/share/psi4/basis/aug-cc-pvdz.gbs
    atoms 7-10, 17-20 entry C          line   182 file /storage/home/hhive1/csargent30/data/miniconda3/envs/psi4/share/psi4/basis/aug-cc-pvdz.gbs


         ---------------------------------------------------------
                                   SCF
               by Justin Turney, Rob Parrish, Andy Simmonett
                          and Daniel G. A. Smith
                              RHF Reference
                        2 Threads,   6675 MiB Core
         ---------------------------------------------------------

  ==> Geometry <==

    Molecular point group: c1
    Full point group: C1

    Geometry (in Bohr), charge = 0, multiplicity = 1:

       Center              X                  Y                   Z               Mass
    ------------   -----------------  -----------------  -----------------  -----------------
         N           -1.330847580000     0.980326580000     0.426270370000    14.003074004430
         N            3.953773330000     0.980326580000     0.426270370000    14.003074004430
         H            3.567136740000     4.352185690000    -0.942309730000     1.007825032230
         H           -0.944210980000     4.352185690000    -0.942309730000     1.007825032230
         H           -0.944210980000    -2.391532530000     1.794850470000     1.007825032230
         H            3.567136740000    -2.391532530000     1.794850470000     1.007825032230
         C            2.622925760000     2.940979740000    -0.426270370000    12.000000000000
         C            0.000000000000     2.940979740000    -0.426270370000    12.000000000000
         C            0.000000000000    -0.980326580000     1.278811120000    12.000000000000
         C            2.622925760000    -0.980326580000     1.278811120000    12.000000000000
      Gh(N)          -1.330847580000    12.035602360000   -20.737339420000    14.003074004430
      Gh(N)           3.953773330000    12.035602360000   -20.737339420000    14.003074004430
      Gh(H)           3.567136740000    15.407461470000   -22.105919520000     1.007825032230
      Gh(H)          -0.944210980000    15.407461470000   -22.105919520000     1.007825032230
      Gh(H)          -0.944210980000     8.663743250000   -19.368759320000     1.007825032230
      Gh(H)           3.567136740000     8.663743250000   -19.368759320000     1.007825032230
      Gh(C)           2.622925760000    13.996255520000   -21.589880170000    12.000000000000
      Gh(C)           0.000000000000    13.996255520000   -21.589880170000    12.000000000000
      Gh(C)           0.000000000000    10.074949200000   -19.884798670000    12.000000000000
      Gh(C)           2.622925760000    10.074949200000   -19.884798670000    12.000000000000

  Running in c1 symmetry.

  Rotational constants: A =      0.05930  B =      0.00129  C =      0.00127 [cm^-1]
  Rotational constants: A =   1777.66143  B =     38.58717  C =     38.18804 [MHz]
  Nuclear repulsion =  212.551731110485349

  Charge       = 0
  Multiplicity = 1
  Electrons    = 42
  Nalpha       = 21
  Nbeta        = 21

  ==> Algorithm <==

  SCF Algorithm Type is DF.
  DIIS enabled.
  MOM disabled.
  Fractional occupation disabled.
  Guess Type is SAD.
  Energy threshold   = 1.00e-10
  Density threshold  = 1.00e-10
  Integral threshold = 1.00e-12

  ==> Primary Basis <==

  Basis Set: AUG-CC-PVDZ
    Blend: AUG-CC-PVDZ
    Number of shells: 148
    Number of basis functions: 348
    Number of Cartesian functions: 372
    Spherical Harmonics?: true
    Max angular momentum: 2

   => Loading Basis Set <=

    Name: (AUG-CC-PVDZ AUX)
    Role: JKFIT
    Keyword: DF_BASIS_SCF
    atoms 1-2, 11-12  entry N          line   212 file /storage/home/hhive1/csargent30/data/miniconda3/envs/psi4/share/psi4/basis/aug-cc-pvdz-jkfit.gbs
    atoms 3-6, 13-16  entry H          line    70 file /storage/home/hhive1/csargent30/data/miniconda3/envs/psi4/share/psi4/basis/aug-cc-pvdz-jkfit.gbs
    atoms 7-10, 17-20 entry C          line   154 file /storage/home/hhive1/csargent30/data/miniconda3/envs/psi4/share/psi4/basis/aug-cc-pvdz-jkfit.gbs

  ==> Integral Setup <==

  ==> DiskDFJK: Density-Fitted J/K Matrices <==

    J tasked:                  Yes
    K tasked:                  Yes
    wK tasked:                  No
    OpenMP threads:              2
    Integrals threads:           2
    Memory [MiB]:             5006
    Algorithm:                Core
    Integral Cache:           LOAD
    Schwarz Cutoff:          1E-12
    Fitting Condition:       1E-10

   => Auxiliary Basis Set <=

  Basis Set: (AUG-CC-PVDZ AUX)
    Blend: AUG-CC-PVDZ-JKFIT
    Number of shells: 432
    Number of basis functions: 1288
    Number of Cartesian functions: 1492
    Spherical Harmonics?: true
    Max angular momentum: 3

  Minimum eigenvalue in the overlap matrix is 9.3126380733E-06.
  Reciprocal condition number of the overlap matrix is 7.2632641028E-07.
    Using symmetric orthogonalization.

  ==> Pre-Iterations <==

  SCF Guess: Superposition of Atomic Densities via on-the-fly atomic UHF (no occupation information).

   -------------------------
    Irrep   Nso     Nmo
   -------------------------
     A        348     348
   -------------------------
    Total     348     348
   -------------------------

  ==> Iterations <==

                           Total Energy        Delta E     RMS |[F,P]|

   @DF-RHF iter SAD:  -262.32523126639006   -2.62325e+02   0.00000e+00
   @DF-RHF iter   1:  -262.53940855118572   -2.14177e-01   1.11986e-03 DIIS
   @DF-RHF iter   2:  -262.62878909256739   -8.93805e-02   4.10665e-04 DIIS
   @DF-RHF iter   3:  -262.63862365883671   -9.83457e-03   1.28248e-04 DIIS
   @DF-RHF iter   4:  -262.63984841172578   -1.22475e-03   3.77600e-05 DIIS
   @DF-RHF iter   5:  -262.63993801229174   -8.96006e-05   7.55559e-06 DIIS
   @DF-RHF iter   6:  -262.63994456255716   -6.55027e-06   2.45264e-06 DIIS
   @DF-RHF iter   7:  -262.63994551493209   -9.52375e-07   6.40131e-07 DIIS
   @DF-RHF iter   8:  -262.63994558882013   -7.38880e-08   9.91693e-08 DIIS
   @DF-RHF iter   9:  -262.63994559080709   -1.98696e-09   1.88228e-08 DIIS
   @DF-RHF iter  10:  -262.63994559087752   -7.04290e-11   3.19156e-09 DIIS
   @DF-RHF iter  11:  -262.63994559087928   -1.76215e-12   5.22756e-10 DIIS
   @DF-RHF iter  12:  -262.63994559087979   -5.11591e-13   9.90546e-11 DIIS
  Energy and wave function converged.


  ==> Post-Iterations <==

    Orbital Energies [Eh]
    ---------------------

    Doubly Occupied:

       1A    -15.598072     2A    -15.598053     3A    -11.274239
       4A    -11.274194     5A    -11.272974     6A    -11.272969
       7A     -1.313347     8A     -1.224175     9A     -1.076803
      10A     -0.922662    11A     -0.919282    12A     -0.760637
      13A     -0.738402    14A     -0.706214    15A     -0.647687
      16A     -0.580711    17A     -0.574369    18A     -0.497113
      19A     -0.434288    20A     -0.415855    21A     -0.359924

    Virtual:

      22A      0.021669    23A      0.033417    24A      0.038030
      25A      0.040420    26A      0.043035    27A      0.048265
      28A      0.056580    29A      0.061127    30A      0.067054
      31A      0.079233    32A      0.084786    33A      0.099282
      34A      0.100963    35A      0.103591    36A      0.107908
      37A      0.108510    38A      0.113898    39A      0.115273
      40A      0.121715    41A      0.124131    42A      0.124292
      43A      0.125692    44A      0.128580    45A      0.130129
      46A      0.132995    47A      0.135278    48A      0.151665
      49A      0.152692    50A      0.157497    51A      0.159257
      52A      0.162547    53A      0.162704    54A      0.165408
      55A      0.175335    56A      0.176547    57A      0.186915
      58A      0.198238    59A      0.203462    60A      0.204028
      61A      0.207279    62A      0.212634    63A      0.222583
      64A      0.233547    65A      0.239123    66A      0.251126
      67A      0.254961    68A      0.267805    69A      0.270409
      70A      0.278392    71A      0.288176    72A      0.293208
      73A      0.296447    74A      0.302892    75A      0.314881
      76A      0.320343    77A      0.320353    78A      0.328341
      79A      0.331200    80A      0.344022    81A      0.355779
      82A      0.357970    83A      0.364678    84A      0.380246
      85A      0.382716    86A      0.385229    87A      0.398795
      88A      0.401305    89A      0.410059    90A      0.418942
      91A      0.424389    92A      0.425564    93A      0.434099
      94A      0.438730    95A      0.441565    96A      0.452150
      97A      0.460543    98A      0.460760    99A      0.471456
     100A      0.476075   101A      0.478714   102A      0.492158
     103A      0.505038   104A      0.507824   105A      0.514932
     106A      0.523635   107A      0.524570   108A      0.528891
     109A      0.535807   110A      0.554648   111A      0.557663
     112A      0.561141   113A      0.564179   114A      0.570803
     115A      0.581981   116A      0.587571   117A      0.591506
     118A      0.593802   119A      0.595715   120A      0.608940
     121A      0.614768   122A      0.619963   123A      0.636192
     124A      0.643518   125A      0.644484   126A      0.648990
     127A      0.651105   128A      0.679126   129A      0.684533
     130A      0.685726   131A      0.687976   132A      0.689972
     133A      0.690709   134A      0.694941   135A      0.704024
     136A      0.719553   137A      0.728027   138A      0.746362
     139A      0.746988   140A      0.754843   141A      0.766967
     142A      0.775339   143A      0.781602   144A      0.793283
     145A      0.799837   146A      0.802775   147A      0.810742
     148A      0.811645   149A      0.819037   150A      0.824429
     151A      0.831081   152A      0.847427   153A      0.847889
     154A      0.848929   155A      0.868270   156A      0.880545
     157A      0.886413   158A      0.887819   159A      0.894798
     160A      0.905781   161A      0.928966   162A      0.929278
     163A      0.939525   164A      0.947304   165A      0.949500
     166A      0.970422   167A      0.976574   168A      0.986278
     169A      0.996665   170A      0.998976   171A      1.013050
     172A      1.032047   173A      1.033478   174A      1.046551
     175A      1.051215   176A      1.075993   177A      1.089389
     178A      1.089907   179A      1.100490   180A      1.122440
     181A      1.124042   182A      1.130513   183A      1.134438
     184A      1.139900   185A      1.158852   186A      1.168220
     187A      1.170292   188A      1.173565   189A      1.192034
     190A      1.193051   191A      1.200114   192A      1.221961
     193A      1.235499   194A      1.238833   195A      1.250680
     196A      1.307179   197A      1.309712   198A      1.317954
     199A      1.326048   200A      1.329304   201A      1.331159
     202A      1.346447   203A      1.388851   204A      1.414351
     205A      1.448024   206A      1.451549   207A      1.455088
     208A      1.478957   209A      1.486155   210A      1.486884
     211A      1.488078   212A      1.499310   213A      1.502950
     214A      1.518252   215A      1.572689   216A      1.574410
     217A      1.588130   218A      1.636130   219A      1.640638
     220A      1.648278   221A      1.658881   222A      1.676555
     223A      1.697690   224A      1.716991   225A      1.746606
     226A      1.755147   227A      1.783929   228A      1.815728
     229A      1.893327   230A      1.916164   231A      1.964829
     232A      1.987678   233A      2.031242   234A      2.069884
     235A      2.091559   236A      2.101094   237A      2.102454
     238A      2.119187   239A      2.142957   240A      2.156303
     241A      2.158889   242A      2.163356   243A      2.190529
     244A      2.193441   245A      2.194485   246A      2.200396
     247A      2.202420   248A      2.227630   249A      2.234391
     250A      2.241129   251A      2.249294   252A      2.309652
     253A      2.312768   254A      2.319345   255A      2.355270
     256A      2.384443   257A      2.418901   258A      2.430955
     259A      2.435049   260A      2.438036   261A      2.439130
     262A      2.472302   263A      2.486357   264A      2.497957
     265A      2.519381   266A      2.522411   267A      2.524747
     268A      2.545626   269A      2.568269   270A      2.584768
     271A      2.592071   272A      2.606271   273A      2.625627
     274A      2.665283   275A      2.675434   276A      2.686497
     277A      2.714068   278A      2.716592   279A      2.718596
     280A      2.726271   281A      2.767565   282A      2.844018
     283A      2.865766   284A      2.903757   285A      2.939269
     286A      2.946879   287A      2.955464   288A      2.972968
     289A      3.001887   290A      3.017877   291A      3.032226
     292A      3.057961   293A      3.064978   294A      3.094145
     295A      3.113565   296A      3.220686   297A      3.245355
     298A      3.255981   299A      3.284962   300A      3.289304
     301A      3.321584   302A      3.337364   303A      3.340127
     304A      3.348281   305A      3.351054   306A      3.366176
     307A      3.412258   308A      3.413446   309A      3.470454
     310A      3.501611   311A      3.514928   312A      3.521084
     313A      3.590673   314A      3.604202   315A      3.605359
     316A      3.627783   317A      3.700163   318A      3.818678
     319A      3.830343   320A      3.940653   321A      3.968802
     322A      3.977288   323A      4.011072   324A      4.194468
     325A      4.242242   326A      4.253504   327A      4.441672
     328A      4.546484   329A      4.578928   330A      4.867296
     331A      4.975840   332A      5.057580   333A      5.261495
     334A      5.316205   335A      5.629928   336A      5.690991
     337A      5.826802   338A      5.952293   339A      6.283512
     340A      6.306578   341A      6.453429   342A      6.630860
     343A     18.125370   344A     18.207643   345A     19.017402
     346A     19.342656   347A     25.286718   348A     25.374437

    Final Occupation by Irrep:
              A
    DOCC [    21 ]

  @DF-RHF Final Energy:  -262.63994559087979

   => Energetics <=

    Nuclear Repulsion Energy =            212.5517311104853491
    One-Electron Energy =                -775.4594138045340515
    Two-Electron Energy =                 300.2677371031689404
    Total Energy =                       -262.6399455908797904

Computation Completed


Properties will be evaluated at   0.000000,   0.000000,   0.000000 [a0]

Properties computed using the SCF density matrix

  Nuclear Dipole Moment: [e a0]
     X:    55.0814      Y:    41.1737      Z:    17.9034

  Electronic Dipole Moment: [e a0]
     X:   -55.0814      Y:   -41.1737      Z:   -17.9034

  Dipole Moment: [e a0]
     X:     0.0000      Y:    -0.0000      Z:    -0.0000     Total:     0.0000

  Dipole Moment: [D]
     X:     0.0000      Y:    -0.0000      Z:    -0.0000     Total:     0.0000


*** tstop() called on atl1-1-01-013-21-r.pace.gatech.edu at Mon Nov 29 16:11:04 2021
Module time:
	user time   =      16.53 seconds =       0.28 minutes
	system time =       0.51 seconds =       0.01 minutes
	total time  =          9 seconds =       0.15 minutes
Total time:
	user time   =      43.95 seconds =       0.73 minutes
	system time =       1.56 seconds =       0.03 minutes
	total time  =         24 seconds =       0.40 minutes

  //>>>>>>>>>>>>>>>>>>>>>>>>>>>>>>>>>>>//
  //            Monomer B HF           //
  //<<<<<<<<<<<<<<<<<<<<<<<<<<<<<<<<<<<//


*** tstart() called on atl1-1-01-013-21-r.pace.gatech.edu
*** at Mon Nov 29 16:11:04 2021

   => Loading Basis Set <=

    Name: AUG-CC-PVDZ
    Role: ORBITAL
    Keyword: BASIS
    atoms 1-2, 11-12  entry N          line   218 file /storage/home/hhive1/csargent30/data/miniconda3/envs/psi4/share/psi4/basis/aug-cc-pvdz.gbs
    atoms 3-6, 13-16  entry H          line    40 file /storage/home/hhive1/csargent30/data/miniconda3/envs/psi4/share/psi4/basis/aug-cc-pvdz.gbs
    atoms 7-10, 17-20 entry C          line   182 file /storage/home/hhive1/csargent30/data/miniconda3/envs/psi4/share/psi4/basis/aug-cc-pvdz.gbs


         ---------------------------------------------------------
                                   SCF
               by Justin Turney, Rob Parrish, Andy Simmonett
                          and Daniel G. A. Smith
                              RHF Reference
                        2 Threads,   6675 MiB Core
         ---------------------------------------------------------

  ==> Geometry <==

    Molecular point group: c1
    Full point group: C1

    Geometry (in Bohr), charge = 0, multiplicity = 1:

       Center              X                  Y                   Z               Mass
    ------------   -----------------  -----------------  -----------------  -----------------
      Gh(N)          -1.330847580000     0.980326580000     0.426270370000    14.003074004430
      Gh(N)           3.953773330000     0.980326580000     0.426270370000    14.003074004430
      Gh(H)           3.567136740000     4.352185690000    -0.942309730000     1.007825032230
      Gh(H)          -0.944210980000     4.352185690000    -0.942309730000     1.007825032230
      Gh(H)          -0.944210980000    -2.391532530000     1.794850470000     1.007825032230
      Gh(H)           3.567136740000    -2.391532530000     1.794850470000     1.007825032230
      Gh(C)           2.622925760000     2.940979740000    -0.426270370000    12.000000000000
      Gh(C)           0.000000000000     2.940979740000    -0.426270370000    12.000000000000
      Gh(C)           0.000000000000    -0.980326580000     1.278811120000    12.000000000000
      Gh(C)           2.622925760000    -0.980326580000     1.278811120000    12.000000000000
         N           -1.330847580000    12.035602360000   -20.737339420000    14.003074004430
         N            3.953773330000    12.035602360000   -20.737339420000    14.003074004430
         H            3.567136740000    15.407461470000   -22.105919520000     1.007825032230
         H           -0.944210980000    15.407461470000   -22.105919520000     1.007825032230
         H           -0.944210980000     8.663743250000   -19.368759320000     1.007825032230
         H            3.567136740000     8.663743250000   -19.368759320000     1.007825032230
         C            2.622925760000    13.996255520000   -21.589880170000    12.000000000000
         C            0.000000000000    13.996255520000   -21.589880170000    12.000000000000
         C            0.000000000000    10.074949200000   -19.884798670000    12.000000000000
         C            2.622925760000    10.074949200000   -19.884798670000    12.000000000000

  Running in c1 symmetry.

  Rotational constants: A =      0.05930  B =      0.00129  C =      0.00127 [cm^-1]
  Rotational constants: A =   1777.66143  B =     38.58717  C =     38.18804 [MHz]
  Nuclear repulsion =  212.551731042300560

  Charge       = 0
  Multiplicity = 1
  Electrons    = 42
  Nalpha       = 21
  Nbeta        = 21

  ==> Algorithm <==

  SCF Algorithm Type is DF.
  DIIS enabled.
  MOM disabled.
  Fractional occupation disabled.
  Guess Type is SAD.
  Energy threshold   = 1.00e-10
  Density threshold  = 1.00e-10
  Integral threshold = 1.00e-12

  ==> Primary Basis <==

  Basis Set: AUG-CC-PVDZ
    Blend: AUG-CC-PVDZ
    Number of shells: 148
    Number of basis functions: 348
    Number of Cartesian functions: 372
    Spherical Harmonics?: true
    Max angular momentum: 2

   => Loading Basis Set <=

    Name: (AUG-CC-PVDZ AUX)
    Role: JKFIT
    Keyword: DF_BASIS_SCF
    atoms 1-2, 11-12  entry N          line   212 file /storage/home/hhive1/csargent30/data/miniconda3/envs/psi4/share/psi4/basis/aug-cc-pvdz-jkfit.gbs
    atoms 3-6, 13-16  entry H          line    70 file /storage/home/hhive1/csargent30/data/miniconda3/envs/psi4/share/psi4/basis/aug-cc-pvdz-jkfit.gbs
    atoms 7-10, 17-20 entry C          line   154 file /storage/home/hhive1/csargent30/data/miniconda3/envs/psi4/share/psi4/basis/aug-cc-pvdz-jkfit.gbs

  ==> Integral Setup <==

  ==> DiskDFJK: Density-Fitted J/K Matrices <==

    J tasked:                  Yes
    K tasked:                  Yes
    wK tasked:                  No
    OpenMP threads:              2
    Integrals threads:           2
    Memory [MiB]:             5006
    Algorithm:                Core
    Integral Cache:           LOAD
    Schwarz Cutoff:          1E-12
    Fitting Condition:       1E-10

   => Auxiliary Basis Set <=

  Basis Set: (AUG-CC-PVDZ AUX)
    Blend: AUG-CC-PVDZ-JKFIT
    Number of shells: 432
    Number of basis functions: 1288
    Number of Cartesian functions: 1492
    Spherical Harmonics?: true
    Max angular momentum: 3

  Minimum eigenvalue in the overlap matrix is 9.3126380733E-06.
  Reciprocal condition number of the overlap matrix is 7.2632641028E-07.
    Using symmetric orthogonalization.

  ==> Pre-Iterations <==

  SCF Guess: Superposition of Atomic Densities via on-the-fly atomic UHF (no occupation information).

   -------------------------
    Irrep   Nso     Nmo
   -------------------------
     A        348     348
   -------------------------
    Total     348     348
   -------------------------

  ==> Iterations <==

                           Total Energy        Delta E     RMS |[F,P]|

   @DF-RHF iter SAD:  -262.32523126036318   -2.62325e+02   0.00000e+00
   @DF-RHF iter   1:  -262.53940855130446   -2.14177e-01   1.11986e-03 DIIS
   @DF-RHF iter   2:  -262.62878909256665   -8.93805e-02   4.10665e-04 DIIS
   @DF-RHF iter   3:  -262.63862365878867   -9.83457e-03   1.28248e-04 DIIS
   @DF-RHF iter   4:  -262.63984841167792   -1.22475e-03   3.77600e-05 DIIS
   @DF-RHF iter   5:  -262.63993801224484   -8.96006e-05   7.55559e-06 DIIS
   @DF-RHF iter   6:  -262.63994456250964   -6.55026e-06   2.45264e-06 DIIS
   @DF-RHF iter   7:  -262.63994551488514   -9.52376e-07   6.40131e-07 DIIS
   @DF-RHF iter   8:  -262.63994558877380   -7.38887e-08   9.91693e-08 DIIS
   @DF-RHF iter   9:  -262.63994559075923   -1.98543e-09   1.88228e-08 DIIS
   @DF-RHF iter  10:  -262.63994559082948   -7.02585e-11   3.19156e-09 DIIS
   @DF-RHF iter  11:  -262.63994559083227   -2.78533e-12   5.22757e-10 DIIS
   @DF-RHF iter  12:  -262.63994559083221    5.68434e-14   9.90624e-11 DIIS
  Energy and wave function converged.


  ==> Post-Iterations <==

    Orbital Energies [Eh]
    ---------------------

    Doubly Occupied:

       1A    -15.598072     2A    -15.598053     3A    -11.274239
       4A    -11.274194     5A    -11.272974     6A    -11.272969
       7A     -1.313347     8A     -1.224175     9A     -1.076803
      10A     -0.922662    11A     -0.919282    12A     -0.760637
      13A     -0.738402    14A     -0.706214    15A     -0.647687
      16A     -0.580711    17A     -0.574369    18A     -0.497113
      19A     -0.434288    20A     -0.415855    21A     -0.359924

    Virtual:

      22A      0.021669    23A      0.033417    24A      0.038030
      25A      0.040420    26A      0.043035    27A      0.048265
      28A      0.056580    29A      0.061127    30A      0.067054
      31A      0.079233    32A      0.084786    33A      0.099282
      34A      0.100963    35A      0.103591    36A      0.107908
      37A      0.108510    38A      0.113898    39A      0.115273
      40A      0.121715    41A      0.124131    42A      0.124292
      43A      0.125692    44A      0.128580    45A      0.130129
      46A      0.132995    47A      0.135278    48A      0.151665
      49A      0.152692    50A      0.157497    51A      0.159257
      52A      0.162547    53A      0.162704    54A      0.165408
      55A      0.175335    56A      0.176547    57A      0.186915
      58A      0.198238    59A      0.203462    60A      0.204028
      61A      0.207279    62A      0.212634    63A      0.222583
      64A      0.233547    65A      0.239123    66A      0.251126
      67A      0.254961    68A      0.267805    69A      0.270409
      70A      0.278391    71A      0.288176    72A      0.293208
      73A      0.296447    74A      0.302892    75A      0.314881
      76A      0.320343    77A      0.320353    78A      0.328341
      79A      0.331200    80A      0.344022    81A      0.355779
      82A      0.357970    83A      0.364678    84A      0.380246
      85A      0.382716    86A      0.385229    87A      0.398795
      88A      0.401305    89A      0.410059    90A      0.418942
      91A      0.424389    92A      0.425564    93A      0.434099
      94A      0.438730    95A      0.441565    96A      0.452150
      97A      0.460543    98A      0.460760    99A      0.471456
     100A      0.476075   101A      0.478714   102A      0.492158
     103A      0.505038   104A      0.507824   105A      0.514932
     106A      0.523635   107A      0.524570   108A      0.528891
     109A      0.535807   110A      0.554648   111A      0.557663
     112A      0.561141   113A      0.564179   114A      0.570803
     115A      0.581981   116A      0.587571   117A      0.591506
     118A      0.593802   119A      0.595715   120A      0.608940
     121A      0.614768   122A      0.619963   123A      0.636192
     124A      0.643518   125A      0.644484   126A      0.648990
     127A      0.651105   128A      0.679126   129A      0.684533
     130A      0.685726   131A      0.687976   132A      0.689972
     133A      0.690709   134A      0.694941   135A      0.704024
     136A      0.719553   137A      0.728027   138A      0.746362
     139A      0.746988   140A      0.754843   141A      0.766967
     142A      0.775339   143A      0.781602   144A      0.793283
     145A      0.799837   146A      0.802775   147A      0.810742
     148A      0.811645   149A      0.819037   150A      0.824429
     151A      0.831081   152A      0.847427   153A      0.847889
     154A      0.848929   155A      0.868270   156A      0.880545
     157A      0.886413   158A      0.887819   159A      0.894798
     160A      0.905781   161A      0.928966   162A      0.929278
     163A      0.939525   164A      0.947304   165A      0.949500
     166A      0.970422   167A      0.976574   168A      0.986278
     169A      0.996665   170A      0.998976   171A      1.013050
     172A      1.032047   173A      1.033478   174A      1.046551
     175A      1.051215   176A      1.075993   177A      1.089389
     178A      1.089907   179A      1.100490   180A      1.122440
     181A      1.124042   182A      1.130513   183A      1.134438
     184A      1.139900   185A      1.158851   186A      1.168220
     187A      1.170292   188A      1.173565   189A      1.192034
     190A      1.193051   191A      1.200114   192A      1.221961
     193A      1.235499   194A      1.238833   195A      1.250680
     196A      1.307179   197A      1.309712   198A      1.317954
     199A      1.326048   200A      1.329304   201A      1.331158
     202A      1.346447   203A      1.388851   204A      1.414351
     205A      1.448024   206A      1.451549   207A      1.455088
     208A      1.478957   209A      1.486155   210A      1.486884
     211A      1.488078   212A      1.499310   213A      1.502950
     214A      1.518252   215A      1.572689   216A      1.574410
     217A      1.588130   218A      1.636130   219A      1.640638
     220A      1.648278   221A      1.658881   222A      1.676555
     223A      1.697690   224A      1.716991   225A      1.746606
     226A      1.755147   227A      1.783929   228A      1.815728
     229A      1.893327   230A      1.916164   231A      1.964829
     232A      1.987678   233A      2.031242   234A      2.069884
     235A      2.091559   236A      2.101094   237A      2.102454
     238A      2.119187   239A      2.142957   240A      2.156303
     241A      2.158889   242A      2.163356   243A      2.190529
     244A      2.193441   245A      2.194485   246A      2.200396
     247A      2.202420   248A      2.227630   249A      2.234391
     250A      2.241129   251A      2.249294   252A      2.309652
     253A      2.312768   254A      2.319345   255A      2.355270
     256A      2.384443   257A      2.418901   258A      2.430955
     259A      2.435049   260A      2.438036   261A      2.439130
     262A      2.472302   263A      2.486357   264A      2.497957
     265A      2.519381   266A      2.522411   267A      2.524747
     268A      2.545626   269A      2.568269   270A      2.584768
     271A      2.592071   272A      2.606271   273A      2.625627
     274A      2.665283   275A      2.675434   276A      2.686497
     277A      2.714068   278A      2.716592   279A      2.718596
     280A      2.726271   281A      2.767565   282A      2.844018
     283A      2.865766   284A      2.903757   285A      2.939269
     286A      2.946879   287A      2.955464   288A      2.972968
     289A      3.001887   290A      3.017877   291A      3.032226
     292A      3.057961   293A      3.064978   294A      3.094145
     295A      3.113565   296A      3.220686   297A      3.245355
     298A      3.255981   299A      3.284962   300A      3.289304
     301A      3.321584   302A      3.337364   303A      3.340127
     304A      3.348281   305A      3.351054   306A      3.366176
     307A      3.412258   308A      3.413446   309A      3.470454
     310A      3.501611   311A      3.514928   312A      3.521084
     313A      3.590673   314A      3.604202   315A      3.605359
     316A      3.627783   317A      3.700163   318A      3.818678
     319A      3.830343   320A      3.940653   321A      3.968802
     322A      3.977288   323A      4.011072   324A      4.194468
     325A      4.242242   326A      4.253504   327A      4.441672
     328A      4.546484   329A      4.578928   330A      4.867296
     331A      4.975840   332A      5.057580   333A      5.261495
     334A      5.316205   335A      5.629928   336A      5.690991
     337A      5.826802   338A      5.952293   339A      6.283512
     340A      6.306578   341A      6.453429   342A      6.630860
     343A     18.125370   344A     18.207643   345A     19.017402
     346A     19.342656   347A     25.286718   348A     25.374437

    Final Occupation by Irrep:
              A
    DOCC [    21 ]

  @DF-RHF Final Energy:  -262.63994559083221

   => Energetics <=

    Nuclear Repulsion Energy =            212.5517310423005597
    One-Electron Energy =                -775.4594136676579410
    Two-Electron Energy =                 300.2677370345252257
    Total Energy =                       -262.6399455908322125

Computation Completed


Properties will be evaluated at   0.000000,   0.000000,   0.000000 [a0]

Properties computed using the SCF density matrix

  Nuclear Dipole Moment: [e a0]
     X:    55.0814      Y:   505.4953      Z:  -870.9683

  Electronic Dipole Moment: [e a0]
     X:   -55.0814      Y:  -505.4953      Z:   870.9683

  Dipole Moment: [e a0]
     X:     0.0000      Y:     0.0000      Z:     0.0000     Total:     0.0000

  Dipole Moment: [D]
     X:     0.0000      Y:     0.0000      Z:     0.0000     Total:     0.0000


*** tstop() called on atl1-1-01-013-21-r.pace.gatech.edu at Mon Nov 29 16:11:13 2021
Module time:
	user time   =      16.52 seconds =       0.28 minutes
	system time =       0.49 seconds =       0.01 minutes
	total time  =          9 seconds =       0.15 minutes
Total time:
	user time   =      60.48 seconds =       1.01 minutes
	system time =       2.05 seconds =       0.03 minutes
	total time  =         33 seconds =       0.55 minutes
  Constructing Basis Sets for SAPT...

   => Loading Basis Set <=

    Name: (AUG-CC-PVDZ AUX)
    Role: RIFIT
    Keyword: DF_BASIS_SAPT
    atoms 1-2, 11-12  entry N          line   158 file /storage/home/hhive1/csargent30/data/miniconda3/envs/psi4/share/psi4/basis/aug-cc-pvdz-ri.gbs
    atoms 3-6, 13-16  entry H          line    30 file /storage/home/hhive1/csargent30/data/miniconda3/envs/psi4/share/psi4/basis/aug-cc-pvdz-ri.gbs
    atoms 7-10, 17-20 entry C          line   112 file /storage/home/hhive1/csargent30/data/miniconda3/envs/psi4/share/psi4/basis/aug-cc-pvdz-ri.gbs


  //>>>>>>>>>>>>>>>>>>>>>>>>>>>>>>>>>>>//
  //               SAPT0               //
  //<<<<<<<<<<<<<<<<<<<<<<<<<<<<<<<<<<<//


*** tstart() called on atl1-1-01-013-21-r.pace.gatech.edu
*** at Mon Nov 29 16:11:13 2021

        SAPT0
    Ed Hohenstein
     6 June 2009

      Orbital Information
  --------------------------
    NSO        =       348
    NMO        =       348
    NRI        =      1048
    NOCC A     =        21
    NOCC B     =        21
    FOCC A     =         6
    FOCC B     =         6
    NVIR A     =       327
    NVIR B     =       327

    Elst10,r            =    -0.000004300409 [Eh]
    Exch10              =     0.000000000078 [Eh]
    Exch10 (S^2)        =     0.000000000078 [Eh]

    Iter     Energy [mEh]          dE [mEh]         Residual      Time [s]
       1      -0.00005443       0.000054425       0.070148846             1
       2      -0.00004831      -0.000006118       0.013486322             1
       3      -0.00005182       0.000003511       0.006774192             1
       4      -0.00005264       0.000000821       0.001549029             2
       5      -0.00005241      -0.000000230       0.000727090             2
       6      -0.00005244       0.000000029       0.000282449             2
       7      -0.00005245       0.000000009       0.000087571             3
       8      -0.00005245      -0.000000000       0.000025055             3
       9      -0.00005245      -0.000000001       0.000008510             4
      10      -0.00005245      -0.000000000       0.000002431             4
      11      -0.00005245       0.000000000       0.000000534             4

    CHF Iterations converged


    Iter     Energy [mEh]          dE [mEh]         Residual      Time [s]
       1      -0.00005443       0.000054425       0.070148846             1
       2      -0.00004831      -0.000006118       0.013486322             1
       3      -0.00005182       0.000003511       0.006774192             1
       4      -0.00005264       0.000000821       0.001549029             2
       5      -0.00005241      -0.000000230       0.000727090             2
       6      -0.00005244       0.000000029       0.000282449             2
       7      -0.00005245       0.000000009       0.000087571             3
       8      -0.00005245      -0.000000000       0.000025055             3
       9      -0.00005245      -0.000000001       0.000008510             3
      10      -0.00005245      -0.000000000       0.000002431             4
      11      -0.00005245       0.000000000       0.000000534             4

    CHF Iterations converged

    Ind20,r (A<-B)      =    -0.000000052446 [Eh]
    Ind20,r (B<-A)      =    -0.000000052446 [Eh]
    Ind20,r             =    -0.000000104892 [Eh]
    Exch-Ind20,r (A<-B) =     0.000000000380 [Eh]
    Exch-Ind20,r (B<-A) =     0.000000000380 [Eh]
    Exch-Ind20,r        =     0.000000000761 [Eh]
    Disp20              =    -0.000009878689 [Eh]
    Disp20 (SS)         =    -0.000004939345 [Eh]
    Disp20 (OS)         =    -0.000004939345 [Eh]
    Exch-Disp20         =     0.000000000107 [Eh]
    Exch-Disp20 (SS)    =     0.000000000089 [Eh]
    Exch-Disp20 (OS)    =     0.000000000018 [Eh]

    SAPT Results
  --------------------------------------------------------------------------------------------------------
    Electrostatics                 -0.00430041 [mEh]      -0.00269855 [kcal/mol]      -0.01129072 [kJ/mol]
      Elst10,r                     -0.00430041 [mEh]      -0.00269855 [kcal/mol]      -0.01129072 [kJ/mol]

    Exchange                        0.00000008 [mEh]       0.00000005 [kcal/mol]       0.00000021 [kJ/mol]
      Exch10                        0.00000008 [mEh]       0.00000005 [kcal/mol]       0.00000021 [kJ/mol]
      Exch10(S^2)                   0.00000008 [mEh]       0.00000005 [kcal/mol]       0.00000021 [kJ/mol]

    Induction                      -0.00012194 [mEh]      -0.00007652 [kcal/mol]      -0.00032015 [kJ/mol]
      Ind20,r                      -0.00010489 [mEh]      -0.00006582 [kcal/mol]      -0.00027539 [kJ/mol]
      Exch-Ind20,r                  0.00000076 [mEh]       0.00000048 [kcal/mol]       0.00000200 [kJ/mol]
      delta HF,r (2)               -0.00001781 [mEh]      -0.00001117 [kcal/mol]      -0.00004675 [kJ/mol]

    Dispersion                     -0.00987858 [mEh]      -0.00619890 [kcal/mol]      -0.02593621 [kJ/mol]
      Disp20                       -0.00987869 [mEh]      -0.00619897 [kcal/mol]      -0.02593649 [kJ/mol]
      Exch-Disp20                   0.00000011 [mEh]       0.00000007 [kcal/mol]       0.00000028 [kJ/mol]
      Disp20 (SS)                  -0.00493934 [mEh]      -0.00309949 [kcal/mol]      -0.01296825 [kJ/mol]
      Disp20 (OS)                  -0.00493934 [mEh]      -0.00309949 [kcal/mol]      -0.01296825 [kJ/mol]
      Exch-Disp20 (SS)              0.00000009 [mEh]       0.00000006 [kcal/mol]       0.00000023 [kJ/mol]
      Exch-Disp20 (OS)              0.00000002 [mEh]       0.00000001 [kcal/mol]       0.00000005 [kJ/mol]

  Total HF                         -0.00442227 [mEh]      -0.00277502 [kcal/mol]      -0.01161066 [kJ/mol]
  Total SAPT0                      -0.01430085 [mEh]      -0.00897392 [kcal/mol]      -0.03754688 [kJ/mol]

  Special recipe for scaled SAPT0 (see Manual):
    Electrostatics sSAPT0          -0.00430041 [mEh]      -0.00269855 [kcal/mol]      -0.01129072 [kJ/mol]
    Exchange sSAPT0                 0.00000008 [mEh]       0.00000005 [kcal/mol]       0.00000021 [kJ/mol]
    Induction sSAPT0               -0.00012194 [mEh]      -0.00007652 [kcal/mol]      -0.00032015 [kJ/mol]
    Dispersion sSAPT0              -0.00987858 [mEh]      -0.00619890 [kcal/mol]      -0.02593621 [kJ/mol]
  Total sSAPT0                     -0.01430085 [mEh]      -0.00897392 [kcal/mol]      -0.03754688 [kJ/mol]
  --------------------------------------------------------------------------------------------------------

*** tstop() called on atl1-1-01-013-21-r.pace.gatech.edu at Mon Nov 29 16:11:39 2021
Module time:
	user time   =      38.37 seconds =       0.64 minutes
	system time =       8.81 seconds =       0.15 minutes
	total time  =         26 seconds =       0.43 minutes
Total time:
	user time   =      99.10 seconds =       1.65 minutes
	system time =      10.87 seconds =       0.18 minutes
	total time  =         59 seconds =       0.98 minutes


Warning! sapt0 does not have an associated derived wavefunction.The returned wavefunction is the dimer SCF wavefunction.


    Psi4 stopped on: Monday, 29 November 2021 04:11PM
    Psi4 wall time for execution: 0:00:59.05

*** Psi4 exiting successfully. Buy a developer a beer!
