
    -----------------------------------------------------------------------
          Psi4: An Open-Source Ab Initio Electronic Structure Package
                               Psi4 1.4.1 release

                         Git: Rev {HEAD} cd00f19


    D. G. A. Smith, L. A. Burns, A. C. Simmonett, R. M. Parrish,
    M. C. Schieber, R. Galvelis, P. Kraus, H. Kruse, R. Di Remigio,
    A. Alenaizan, A. M. James, S. Lehtola, J. P. Misiewicz, M. Scheurer,
    R. A. Shaw, J. B. Schriber, Y. Xie, Z. L. Glick, D. A. Sirianni,
    J. S. O'Brien, J. M. Waldrop, A. Kumar, E. G. Hohenstein,
    B. P. Pritchard, B. R. Brooks, H. F. Schaefer III, A. Yu. Sokolov,
    K. Patkowski, A. E. DePrince III, U. Bozkaya, R. A. King,
    F. A. Evangelista, J. M. Turney, T. D. Crawford, C. D. Sherrill,
    J. Chem. Phys. 152(18) 184108 (2020). https://doi.org/10.1063/5.0006002

                            Additional Code Authors
    E. T. Seidl, C. L. Janssen, E. F. Valeev, M. L. Leininger,
    J. F. Gonthier, R. M. Richard, H. R. McAlexander, M. Saitow, X. Wang,
    P. Verma, and M. H. Lechner

             Previous Authors, Complete List of Code Contributors,
                       and Citations for Specific Modules
    https://github.com/psi4/psi4/blob/master/codemeta.json
    https://github.com/psi4/psi4/graphs/contributors
    http://psicode.org/psi4manual/master/introduction.html#citing-psifour

    -----------------------------------------------------------------------


    Psi4 started on: Monday, 29 November 2021 04:10PM

    Process ID: 14392
    Host:       atl1-1-01-015-20-r.pace.gatech.edu
    PSIDATADIR: /storage/home/hhive1/csargent30/data/miniconda3/envs/psi4/share/psi4
    Memory:     500.0 MiB
    Threads:    2

  ==> Input File <==

--------------------------------------------------------------------------
# PSI4 file produced by CrystaLattE

# Generated from:               pyrazine.xyz
# Psithon input for N-mer:      2mer-0+72
# Number of atoms per monomer:  [10, 10]
# Number of replicas:           2
# COM priority:                 1.054947295400e-04
# Minimum COM separations:      11.199
# Separation priority:          1.323698184546e-04
# Minimum monomer separations:  10.383
# Cutoff priority:              6.746087413026e-06
# Nuclear repulsion energy:     507.37729164164057

memory 7 GB

molecule Dimer_0_72 {
  N           -1.33084758       0.98032658       0.42627037
  N            3.95377333       0.98032658       0.42627037
  H            3.56713674       4.35218569      -0.94230973
  H           -0.94421098       4.35218569      -0.94230973
  H           -0.94421098      -2.39153253       1.79485047
  H            3.56713674      -2.39153253       1.79485047
  C            2.62292576       2.94097974      -0.42627037
  C            0.00000000       2.94097974      -0.42627037
  C            0.00000000      -0.98032658       1.27881112
  C            2.62292576      -0.98032658       1.27881112
--
  N           -1.33084758       0.98032658     -20.73733942
  N            3.95377333       0.98032658     -20.73733942
  H            3.56713674       4.35218569     -22.10591952
  H           -0.94421098       4.35218569     -22.10591952
  H           -0.94421098      -2.39153253     -19.36875932
  H            3.56713674      -2.39153253     -19.36875932
  C            2.62292576       2.94097974     -21.58988017
  C            0.00000000       2.94097974     -21.58988017
  C            0.00000000      -0.98032658     -19.88479867
  C            2.62292576      -0.98032658     -19.88479867
units = au
no_com
no_reorient
}

set {
  e_convergence 10
  d_convergence 10
  scf_type df
  mp2_type df
  cc_type df
  freeze_core true
}

energy('sapt0/aug-cc-pvdz')

--------------------------------------------------------------------------

  Memory set to   6.519 GiB by Python driver.

Scratch directory: /tmp/

Scratch directory: /tmp/

  //>>>>>>>>>>>>>>>>>>>>>>>>>>>>>>>>>>>//
  //              Dimer HF             //
  //<<<<<<<<<<<<<<<<<<<<<<<<<<<<<<<<<<<//


*** tstart() called on atl1-1-01-015-20-r.pace.gatech.edu
*** at Mon Nov 29 16:10:41 2021

   => Loading Basis Set <=

    Name: AUG-CC-PVDZ
    Role: ORBITAL
    Keyword: BASIS
    atoms 1-2, 11-12  entry N          line   218 file /storage/home/hhive1/csargent30/data/miniconda3/envs/psi4/share/psi4/basis/aug-cc-pvdz.gbs
    atoms 3-6, 13-16  entry H          line    40 file /storage/home/hhive1/csargent30/data/miniconda3/envs/psi4/share/psi4/basis/aug-cc-pvdz.gbs
    atoms 7-10, 17-20 entry C          line   182 file /storage/home/hhive1/csargent30/data/miniconda3/envs/psi4/share/psi4/basis/aug-cc-pvdz.gbs


         ---------------------------------------------------------
                                   SCF
               by Justin Turney, Rob Parrish, Andy Simmonett
                          and Daniel G. A. Smith
                              RHF Reference
                        2 Threads,   6675 MiB Core
         ---------------------------------------------------------

  ==> Geometry <==

    Molecular point group: c1
    Full point group: C1

    Geometry (in Bohr), charge = 0, multiplicity = 1:

       Center              X                  Y                   Z               Mass
    ------------   -----------------  -----------------  -----------------  -----------------
         N           -1.330847580000     0.980326580000     0.426270370000    14.003074004430
         N            3.953773330000     0.980326580000     0.426270370000    14.003074004430
         H            3.567136740000     4.352185690000    -0.942309730000     1.007825032230
         H           -0.944210980000     4.352185690000    -0.942309730000     1.007825032230
         H           -0.944210980000    -2.391532530000     1.794850470000     1.007825032230
         H            3.567136740000    -2.391532530000     1.794850470000     1.007825032230
         C            2.622925760000     2.940979740000    -0.426270370000    12.000000000000
         C            0.000000000000     2.940979740000    -0.426270370000    12.000000000000
         C            0.000000000000    -0.980326580000     1.278811120000    12.000000000000
         C            2.622925760000    -0.980326580000     1.278811120000    12.000000000000
         N           -1.330847580000     0.980326580000   -20.737339420000    14.003074004430
         N            3.953773330000     0.980326580000   -20.737339420000    14.003074004430
         H            3.567136740000     4.352185690000   -22.105919520000     1.007825032230
         H           -0.944210980000     4.352185690000   -22.105919520000     1.007825032230
         H           -0.944210980000    -2.391532530000   -19.368759320000     1.007825032230
         H            3.567136740000    -2.391532530000   -19.368759320000     1.007825032230
         C            2.622925760000     2.940979740000   -21.589880170000    12.000000000000
         C            0.000000000000     2.940979740000   -21.589880170000    12.000000000000
         C            0.000000000000    -0.980326580000   -19.884798670000    12.000000000000
         C            2.622925760000    -0.980326580000   -19.884798670000    12.000000000000

  Running in c1 symmetry.

  Rotational constants: A =      0.04787  B =      0.00171  C =      0.00169 [cm^-1]
  Rotational constants: A =   1435.16780  B =     51.22196  C =     50.80931 [MHz]
  Nuclear repulsion =  507.377291584364855

  Charge       = 0
  Multiplicity = 1
  Electrons    = 84
  Nalpha       = 42
  Nbeta        = 42

  ==> Algorithm <==

  SCF Algorithm Type is DF.
  DIIS enabled.
  MOM disabled.
  Fractional occupation disabled.
  Guess Type is SAD.
  Energy threshold   = 1.00e-10
  Density threshold  = 1.00e-10
  Integral threshold = 1.00e-12

  ==> Primary Basis <==

  Basis Set: AUG-CC-PVDZ
    Blend: AUG-CC-PVDZ
    Number of shells: 148
    Number of basis functions: 348
    Number of Cartesian functions: 372
    Spherical Harmonics?: true
    Max angular momentum: 2

   => Loading Basis Set <=

    Name: (AUG-CC-PVDZ AUX)
    Role: JKFIT
    Keyword: DF_BASIS_SCF
    atoms 1-2, 11-12  entry N          line   212 file /storage/home/hhive1/csargent30/data/miniconda3/envs/psi4/share/psi4/basis/aug-cc-pvdz-jkfit.gbs
    atoms 3-6, 13-16  entry H          line    70 file /storage/home/hhive1/csargent30/data/miniconda3/envs/psi4/share/psi4/basis/aug-cc-pvdz-jkfit.gbs
    atoms 7-10, 17-20 entry C          line   154 file /storage/home/hhive1/csargent30/data/miniconda3/envs/psi4/share/psi4/basis/aug-cc-pvdz-jkfit.gbs

  ==> Integral Setup <==

  ==> DiskDFJK: Density-Fitted J/K Matrices <==

    J tasked:                  Yes
    K tasked:                  Yes
    wK tasked:                  No
    OpenMP threads:              2
    Integrals threads:           2
    Memory [MiB]:             5006
    Algorithm:                Core
    Integral Cache:           SAVE
    Schwarz Cutoff:          1E-12
    Fitting Condition:       1E-10

   => Auxiliary Basis Set <=

  Basis Set: (AUG-CC-PVDZ AUX)
    Blend: AUG-CC-PVDZ-JKFIT
    Number of shells: 432
    Number of basis functions: 1288
    Number of Cartesian functions: 1492
    Spherical Harmonics?: true
    Max angular momentum: 3

  Minimum eigenvalue in the overlap matrix is 9.3589919746E-06.
  Reciprocal condition number of the overlap matrix is 7.2990828379E-07.
    Using symmetric orthogonalization.

  ==> Pre-Iterations <==

  SCF Guess: Superposition of Atomic Densities via on-the-fly atomic UHF (no occupation information).

   -------------------------
    Irrep   Nso     Nmo
   -------------------------
     A        348     348
   -------------------------
    Total     348     348
   -------------------------

  ==> Iterations <==

                           Total Energy        Delta E     RMS |[F,P]|

   @DF-RHF iter SAD:  -524.65046256572737   -5.24650e+02   0.00000e+00
   @DF-RHF iter   1:  -525.07881720868704   -4.28355e-01   1.58370e-03 DIIS
   @DF-RHF iter   2:  -525.25757690185151   -1.78760e-01   5.80749e-04 DIIS
   @DF-RHF iter   3:  -525.27724499774251   -1.96681e-02   1.81364e-04 DIIS
   @DF-RHF iter   4:  -525.27969439858714   -2.44940e-03   5.33969e-05 DIIS
   @DF-RHF iter   5:  -525.27987357471261   -1.79176e-04   1.06878e-05 DIIS
   @DF-RHF iter   6:  -525.27988667801128   -1.31033e-05   3.46903e-06 DIIS
   @DF-RHF iter   7:  -525.27988858314302   -1.90513e-06   9.05497e-07 DIIS
   @DF-RHF iter   8:  -525.27988873093682   -1.47794e-07   1.41729e-07 DIIS
   @DF-RHF iter   9:  -525.27988873490597   -3.96915e-09   3.45776e-08 DIIS
   @DF-RHF iter  10:  -525.27988873506160   -1.55637e-10   1.71369e-08 DIIS
   @DF-RHF iter  11:  -525.27988873508934   -2.77396e-11   2.66178e-09 DIIS
   @DF-RHF iter  12:  -525.27988873509059   -1.25056e-12   5.87191e-10 DIIS
   @DF-RHF iter  13:  -525.27988873509059    0.00000e+00   2.14669e-10 DIIS
   @DF-RHF iter  14:  -525.27988873509048    1.13687e-13   8.70760e-11 DIIS
  Energy and wave function converged.


  ==> Post-Iterations <==

    Orbital Energies [Eh]
    ---------------------

    Doubly Occupied:

       1A    -15.598024     2A    -15.598024     3A    -15.598005
       4A    -15.598005     5A    -11.274196     6A    -11.274196
       7A    -11.274142     8A    -11.274142     9A    -11.272940
      10A    -11.272940    11A    -11.272909    12A    -11.272909
      13A     -1.313300    14A     -1.313300    15A     -1.224128
      16A     -1.224128    17A     -1.076756    18A     -1.076756
      19A     -0.922614    20A     -0.922614    21A     -0.919236
      22A     -0.919235    23A     -0.760590    24A     -0.760588
      25A     -0.738353    26A     -0.738353    27A     -0.706166
      28A     -0.706166    29A     -0.647640    30A     -0.647640
      31A     -0.580663    32A     -0.580663    33A     -0.574325
      34A     -0.574325    35A     -0.497063    36A     -0.497063
      37A     -0.434241    38A     -0.434241    39A     -0.415806
      40A     -0.415806    41A     -0.359880    42A     -0.359880

    Virtual:

      43A      0.031699    44A      0.036353    45A      0.041016
      46A      0.041101    47A      0.046414    48A      0.050211
      49A      0.058583    50A      0.058906    51A      0.066313
      52A      0.068038    53A      0.099323    54A      0.099564
      55A      0.100456    56A      0.101442    57A      0.112223
      58A      0.112411    59A      0.115178    60A      0.117151
      61A      0.123583    62A      0.123887    63A      0.124486
      64A      0.126179    65A      0.128506    66A      0.128958
      67A      0.131873    68A      0.134433    69A      0.155969
      70A      0.156940    71A      0.160641    72A      0.160677
      73A      0.160687    74A      0.162680    75A      0.167182
      76A      0.169026    77A      0.174810    78A      0.176052
      79A      0.186085    80A      0.188365    81A      0.203357
      82A      0.204717    83A      0.211981    84A      0.213556
      85A      0.247872    86A      0.253955    87A      0.266762
      88A      0.269954    89A      0.277469    90A      0.278568
      91A      0.286245    92A      0.289998    93A      0.292784
      94A      0.293809    95A      0.294944    96A      0.296853
      97A      0.314712    98A      0.315099    99A      0.319135
     100A      0.322563   101A      0.355476   102A      0.355548
     103A      0.357195   104A      0.358584   105A      0.363842
     106A      0.366200   107A      0.381489   108A      0.384482
     109A      0.398220   110A      0.400395   111A      0.410109
     112A      0.410236   113A      0.425267   114A      0.426021
     115A      0.433228   116A      0.434766   117A      0.437385
     118A      0.438443   119A      0.451558   120A      0.453007
     121A      0.471356   122A      0.471726   123A      0.491922
     124A      0.492620   125A      0.504195   126A      0.506012
     127A      0.514757   128A      0.515150   129A      0.524293
     130A      0.524978   131A      0.526701   132A      0.532041
     133A      0.554400   134A      0.555011   135A      0.570103
     136A      0.571375   137A      0.587319   138A      0.588089
     139A      0.591494   140A      0.591622   141A      0.593909
     142A      0.594040   143A      0.608993   144A      0.608995
     145A      0.643245   146A      0.643946   147A      0.644109
     148A      0.644724   149A      0.685155   150A      0.685225
     151A      0.686511   152A      0.688577   153A      0.689695
     154A      0.690244   155A      0.690614   156A      0.691585
     157A      0.694782   158A      0.695406   159A      0.703512
     160A      0.704423   161A      0.746414   162A      0.746836
     163A      0.754849   164A      0.754898   165A      0.766803
     166A      0.767343   167A      0.780066   168A      0.783252
     169A      0.799809   170A      0.799939   171A      0.802152
     172A      0.803710   173A      0.819120   174A      0.819171
     175A      0.831058   176A      0.831212   177A      0.846998
     178A      0.848376   179A      0.880414   180A      0.880935
     181A      0.886384   182A      0.886554   183A      0.894333
     184A      0.895376   185A      0.929290   186A      0.929365
     187A      0.938721   188A      0.940724   189A      0.949103
     190A      0.949874   191A      0.996632   192A      0.996786
     193A      0.998748   194A      0.999332   195A      1.012929
     196A      1.013270   197A      1.033165   198A      1.033709
     199A      1.051023   200A      1.051544   201A      1.089432
     202A      1.089442   203A      1.100338   204A      1.100676
     205A      1.122209   206A      1.122486   207A      1.124006
     208A      1.124168   209A      1.133984   210A      1.135167
     211A      1.157956   212A      1.159958   213A      1.173590
     214A      1.173636   215A      1.235349   216A      1.235629
     217A      1.238713   218A      1.239048   219A      1.309613
     220A      1.309871   221A      1.331124   222A      1.331267
     223A      1.414348   224A      1.414350   225A      1.451509
     226A      1.451663   227A      1.486143   228A      1.486240
     229A      1.488110   230A      1.488186   231A      1.498887
     232A      1.499721   233A      1.502778   234A      1.503089
     235A      1.518068   236A      1.518578   237A      1.572280
     238A      1.572767   239A      1.573013   240A      1.576177
     241A      1.586543   242A      1.590655   243A      1.636059
     244A      1.636087   245A      1.640465   246A      1.640690
     247A      1.648246   248A      1.648416   249A      1.676599
     250A      1.676599   251A      1.717024   252A      1.717052
     253A      1.746544   254A      1.746835   255A      1.755011
     256A      1.755350   257A      1.782926   258A      1.785192
     259A      1.815770   260A      1.815778   261A      1.893357
     262A      1.893385   263A      1.916075   264A      1.916352
     265A      1.964684   266A      1.965311   267A      1.987631
     268A      1.987852   269A      2.031112   270A      2.031466
     271A      2.091603   272A      2.091610   273A      2.100619
     274A      2.101640   275A      2.142865   276A      2.143203
     277A      2.163300   278A      2.163573   279A      2.190436
     280A      2.190680   281A      2.193381   282A      2.193422
     283A      2.200355   284A      2.200516   285A      2.202268
     286A      2.202833   287A      2.227603   288A      2.227790
     289A      2.312226   290A      2.313884   291A      2.355134
     292A      2.355442   293A      2.430869   294A      2.431168
     295A      2.437971   296A      2.440366   297A      2.519422
     298A      2.519433   299A      2.522330   300A      2.522585
     301A      2.584825   302A      2.585031   303A      2.606308
     304A      2.606325   305A      2.665233   306A      2.665323
     307A      2.675179   308A      2.675843   309A      2.685997
     310A      2.686933   311A      2.713286   312A      2.715024
     313A      2.718554   314A      2.718771   315A      2.844059
     316A      2.844065   317A      2.865773   318A      2.865852
     319A      2.938930   320A      2.939610   321A      3.001905
     322A      3.001914   323A      3.017860   324A      3.017983
     325A      3.032124   326A      3.032385   327A      3.094146
     328A      3.094237   329A      3.220149   330A      3.220745
     331A      3.256022   332A      3.256033   333A      3.284879
     334A      3.285049   335A      3.366046   336A      3.366351
     337A      3.413385   338A      3.413529   339A      3.514925
     340A      3.515030   341A      3.590646   342A      3.590781
     343A      3.627526   344A      3.628236   345A      3.977226
     346A      3.977400   347A      4.253429   348A      4.253677

    Final Occupation by Irrep:
              A
    DOCC [    42 ]

  @DF-RHF Final Energy:  -525.27988873509048

   => Energetics <=

    Nuclear Repulsion Energy =            507.3772915843648548
    One-Electron Energy =               -1715.4704553279414085
    Two-Electron Energy =                 682.8132750084860163
    Total Energy =                       -525.2798887350904806

Computation Completed


Properties will be evaluated at   0.000000,   0.000000,   0.000000 [a0]

Properties computed using the SCF density matrix

  Nuclear Dipole Moment: [e a0]
     X:   110.1629      Y:    82.3474      Z:  -853.0649

  Electronic Dipole Moment: [e a0]
     X:  -110.1629      Y:   -82.3474      Z:   853.0649

  Dipole Moment: [e a0]
     X:     0.0000      Y:     0.0000      Z:     0.0000     Total:     0.0000

  Dipole Moment: [D]
     X:     0.0000      Y:     0.0000      Z:     0.0000     Total:     0.0000


*** tstop() called on atl1-1-01-015-20-r.pace.gatech.edu at Mon Nov 29 16:10:56 2021
Module time:
	user time   =      28.37 seconds =       0.47 minutes
	system time =       1.01 seconds =       0.02 minutes
	total time  =         15 seconds =       0.25 minutes
Total time:
	user time   =      28.37 seconds =       0.47 minutes
	system time =       1.01 seconds =       0.02 minutes
	total time  =         15 seconds =       0.25 minutes

  //>>>>>>>>>>>>>>>>>>>>>>>>>>>>>>>>>>>//
  //            Monomer A HF           //
  //<<<<<<<<<<<<<<<<<<<<<<<<<<<<<<<<<<<//


*** tstart() called on atl1-1-01-015-20-r.pace.gatech.edu
*** at Mon Nov 29 16:10:56 2021

   => Loading Basis Set <=

    Name: AUG-CC-PVDZ
    Role: ORBITAL
    Keyword: BASIS
    atoms 1-2, 11-12  entry N          line   218 file /storage/home/hhive1/csargent30/data/miniconda3/envs/psi4/share/psi4/basis/aug-cc-pvdz.gbs
    atoms 3-6, 13-16  entry H          line    40 file /storage/home/hhive1/csargent30/data/miniconda3/envs/psi4/share/psi4/basis/aug-cc-pvdz.gbs
    atoms 7-10, 17-20 entry C          line   182 file /storage/home/hhive1/csargent30/data/miniconda3/envs/psi4/share/psi4/basis/aug-cc-pvdz.gbs


         ---------------------------------------------------------
                                   SCF
               by Justin Turney, Rob Parrish, Andy Simmonett
                          and Daniel G. A. Smith
                              RHF Reference
                        2 Threads,   6675 MiB Core
         ---------------------------------------------------------

  ==> Geometry <==

    Molecular point group: c1
    Full point group: C1

    Geometry (in Bohr), charge = 0, multiplicity = 1:

       Center              X                  Y                   Z               Mass
    ------------   -----------------  -----------------  -----------------  -----------------
         N           -1.330847580000     0.980326580000     0.426270370000    14.003074004430
         N            3.953773330000     0.980326580000     0.426270370000    14.003074004430
         H            3.567136740000     4.352185690000    -0.942309730000     1.007825032230
         H           -0.944210980000     4.352185690000    -0.942309730000     1.007825032230
         H           -0.944210980000    -2.391532530000     1.794850470000     1.007825032230
         H            3.567136740000    -2.391532530000     1.794850470000     1.007825032230
         C            2.622925760000     2.940979740000    -0.426270370000    12.000000000000
         C            0.000000000000     2.940979740000    -0.426270370000    12.000000000000
         C            0.000000000000    -0.980326580000     1.278811120000    12.000000000000
         C            2.622925760000    -0.980326580000     1.278811120000    12.000000000000
      Gh(N)          -1.330847580000     0.980326580000   -20.737339420000    14.003074004430
      Gh(N)           3.953773330000     0.980326580000   -20.737339420000    14.003074004430
      Gh(H)           3.567136740000     4.352185690000   -22.105919520000     1.007825032230
      Gh(H)          -0.944210980000     4.352185690000   -22.105919520000     1.007825032230
      Gh(H)          -0.944210980000    -2.391532530000   -19.368759320000     1.007825032230
      Gh(H)           3.567136740000    -2.391532530000   -19.368759320000     1.007825032230
      Gh(C)           2.622925760000     2.940979740000   -21.589880170000    12.000000000000
      Gh(C)           0.000000000000     2.940979740000   -21.589880170000    12.000000000000
      Gh(C)           0.000000000000    -0.980326580000   -19.884798670000    12.000000000000
      Gh(C)           2.622925760000    -0.980326580000   -19.884798670000    12.000000000000

  Running in c1 symmetry.

  Rotational constants: A =      0.04787  B =      0.00171  C =      0.00169 [cm^-1]
  Rotational constants: A =   1435.16780  B =     51.22196  C =     50.80931 [MHz]
  Nuclear repulsion =  212.551731110485349

  Charge       = 0
  Multiplicity = 1
  Electrons    = 42
  Nalpha       = 21
  Nbeta        = 21

  ==> Algorithm <==

  SCF Algorithm Type is DF.
  DIIS enabled.
  MOM disabled.
  Fractional occupation disabled.
  Guess Type is SAD.
  Energy threshold   = 1.00e-10
  Density threshold  = 1.00e-10
  Integral threshold = 1.00e-12

  ==> Primary Basis <==

  Basis Set: AUG-CC-PVDZ
    Blend: AUG-CC-PVDZ
    Number of shells: 148
    Number of basis functions: 348
    Number of Cartesian functions: 372
    Spherical Harmonics?: true
    Max angular momentum: 2

   => Loading Basis Set <=

    Name: (AUG-CC-PVDZ AUX)
    Role: JKFIT
    Keyword: DF_BASIS_SCF
    atoms 1-2, 11-12  entry N          line   212 file /storage/home/hhive1/csargent30/data/miniconda3/envs/psi4/share/psi4/basis/aug-cc-pvdz-jkfit.gbs
    atoms 3-6, 13-16  entry H          line    70 file /storage/home/hhive1/csargent30/data/miniconda3/envs/psi4/share/psi4/basis/aug-cc-pvdz-jkfit.gbs
    atoms 7-10, 17-20 entry C          line   154 file /storage/home/hhive1/csargent30/data/miniconda3/envs/psi4/share/psi4/basis/aug-cc-pvdz-jkfit.gbs

  ==> Integral Setup <==

  ==> DiskDFJK: Density-Fitted J/K Matrices <==

    J tasked:                  Yes
    K tasked:                  Yes
    wK tasked:                  No
    OpenMP threads:              2
    Integrals threads:           2
    Memory [MiB]:             5006
    Algorithm:                Core
    Integral Cache:           LOAD
    Schwarz Cutoff:          1E-12
    Fitting Condition:       1E-10

   => Auxiliary Basis Set <=

  Basis Set: (AUG-CC-PVDZ AUX)
    Blend: AUG-CC-PVDZ-JKFIT
    Number of shells: 432
    Number of basis functions: 1288
    Number of Cartesian functions: 1492
    Spherical Harmonics?: true
    Max angular momentum: 3

  Minimum eigenvalue in the overlap matrix is 9.3589919746E-06.
  Reciprocal condition number of the overlap matrix is 7.2990828379E-07.
    Using symmetric orthogonalization.

  ==> Pre-Iterations <==

  SCF Guess: Superposition of Atomic Densities via on-the-fly atomic UHF (no occupation information).

   -------------------------
    Irrep   Nso     Nmo
   -------------------------
     A        348     348
   -------------------------
    Total     348     348
   -------------------------

  ==> Iterations <==

                           Total Energy        Delta E     RMS |[F,P]|

   @DF-RHF iter SAD:  -262.32523127607806   -2.62325e+02   0.00000e+00
   @DF-RHF iter   1:  -262.53940869405784   -2.14177e-01   1.11986e-03 DIIS
   @DF-RHF iter   2:  -262.62878922605040   -8.93805e-02   4.10665e-04 DIIS
   @DF-RHF iter   3:  -262.63862378883914   -9.83456e-03   1.28248e-04 DIIS
   @DF-RHF iter   4:  -262.63984854083679   -1.22475e-03   3.77600e-05 DIIS
   @DF-RHF iter   5:  -262.63993814138144   -8.96005e-05   7.55560e-06 DIIS
   @DF-RHF iter   6:  -262.63994469166084   -6.55028e-06   2.45265e-06 DIIS
   @DF-RHF iter   7:  -262.63994564403947   -9.52379e-07   6.40132e-07 DIIS
   @DF-RHF iter   8:  -262.63994571792784   -7.38884e-08   9.91694e-08 DIIS
   @DF-RHF iter   9:  -262.63994571991361   -1.98577e-09   1.88228e-08 DIIS
   @DF-RHF iter  10:  -262.63994571998421   -7.05995e-11   3.19156e-09 DIIS
   @DF-RHF iter  11:  -262.63994571998705   -2.84217e-12   5.22729e-10 DIIS
   @DF-RHF iter  12:  -262.63994571998660    4.54747e-13   9.88224e-11 DIIS
  Energy and wave function converged.


  ==> Post-Iterations <==

    Orbital Energies [Eh]
    ---------------------

    Doubly Occupied:

       1A    -15.598072     2A    -15.598053     3A    -11.274238
       4A    -11.274194     5A    -11.272974     6A    -11.272969
       7A     -1.313347     8A     -1.224175     9A     -1.076803
      10A     -0.922662    11A     -0.919282    12A     -0.760637
      13A     -0.738402    14A     -0.706214    15A     -0.647687
      16A     -0.580711    17A     -0.574369    18A     -0.497113
      19A     -0.434288    20A     -0.415855    21A     -0.359924

    Virtual:

      22A      0.021961    23A      0.034243    24A      0.039726
      25A      0.040714    26A      0.040719    27A      0.048605
      28A      0.058519    29A      0.058996    30A      0.066892
      31A      0.079628    32A      0.084969    33A      0.099369
      34A      0.100883    35A      0.103646    36A      0.107810
      37A      0.108685    38A      0.113446    39A      0.115871
      40A      0.121936    41A      0.123853    42A      0.124008
      43A      0.126965    44A      0.128668    45A      0.129495
      46A      0.134178    47A      0.135225    48A      0.152036
      49A      0.152694    50A      0.158848    51A      0.158851
      52A      0.161548    53A      0.162755    54A      0.165013
      55A      0.175061    56A      0.177029    57A      0.186954
      58A      0.198338    59A      0.203231    60A      0.204037
      61A      0.208256    62A      0.212759    63A      0.222475
      64A      0.233639    65A      0.239335    66A      0.251396
      67A      0.255344    68A      0.268090    69A      0.270685
      70A      0.278305    71A      0.288364    72A      0.293119
      73A      0.295856    74A      0.302565    75A      0.314827
      76A      0.320657    77A      0.320785    78A      0.328174
      79A      0.331955    80A      0.344142    81A      0.355451
      82A      0.358133    83A      0.365072    84A      0.380123
      85A      0.383541    86A      0.385482    87A      0.398517
      88A      0.402312    89A      0.410255    90A      0.419244
      91A      0.425097    92A      0.425593    93A      0.434219
      94A      0.437754    95A      0.441968    96A      0.452195
      97A      0.460836    98A      0.461264    99A      0.471492
     100A      0.476190   101A      0.478917   102A      0.492252
     103A      0.504957   104A      0.507870   105A      0.514994
     106A      0.523895   107A      0.524623   108A      0.529501
     109A      0.535764   110A      0.554612   111A      0.557932
     112A      0.561495   113A      0.564482   114A      0.570694
     115A      0.582017   116A      0.587628   117A      0.591506
     118A      0.593880   119A      0.596075   120A      0.608912
     121A      0.615295   122A      0.620394   123A      0.636567
     124A      0.643568   125A      0.644421   126A      0.649335
     127A      0.651462   128A      0.679391   129A      0.685126
     130A      0.685354   131A      0.687954   132A      0.690214
     133A      0.690417   134A      0.694865   135A      0.703947
     136A      0.719884   137A      0.728383   138A      0.746531
     139A      0.747698   140A      0.754841   141A      0.767093
     142A      0.775817   143A      0.781562   144A      0.793675
     145A      0.799833   146A      0.802814   147A      0.811190
     148A      0.811961   149A      0.819101   150A      0.824936
     151A      0.831097   152A      0.847536   153A      0.848121
     154A      0.849245   155A      0.868585   156A      0.880668
     157A      0.886404   158A      0.888173   159A      0.894796
     160A      0.906191   161A      0.929262   162A      0.929276
     163A      0.939690   164A      0.947648   165A      0.949468
     166A      0.970782   167A      0.976924   168A      0.986614
     169A      0.996660   170A      0.999001   171A      1.013043
     172A      1.032403   173A      1.033385   174A      1.047218
     175A      1.051231   176A      1.076276   177A      1.089383
     178A      1.090261   179A      1.100449   180A      1.122331
     181A      1.124043   182A      1.130717   183A      1.134524
     184A      1.140261   185A      1.158854   186A      1.168565
     187A      1.170654   188A      1.173566   189A      1.192556
     190A      1.193261   191A      1.200449   192A      1.222305
     193A      1.235441   194A      1.238834   195A      1.251022
     196A      1.307543   197A      1.309689   198A      1.318286
     199A      1.326405   200A      1.329617   201A      1.331159
     202A      1.346796   203A      1.389216   204A      1.414306
     205A      1.448377   206A      1.451538   207A      1.455445
     208A      1.479168   209A      1.486140   210A      1.487165
     211A      1.488120   212A      1.499271   213A      1.502905
     214A      1.518274   215A      1.572696   216A      1.574609
     217A      1.588300   218A      1.636023   219A      1.640522
     220A      1.648281   221A      1.659234   222A      1.676555
     223A      1.698040   224A      1.716994   225A      1.746647
     226A      1.755132   227A      1.783966   228A      1.815729
     229A      1.893325   230A      1.916163   231A      1.964929
     232A      1.987696   233A      2.031231   234A      2.070202
     235A      2.091553   236A      2.101090   237A      2.102864
     238A      2.119513   239A      2.142984   240A      2.156667
     241A      2.159204   242A      2.163390   243A      2.190511
     244A      2.193351   245A      2.194833   246A      2.200383
     247A      2.202474   248A      2.227643   249A      2.234775
     250A      2.241239   251A      2.249634   252A      2.309995
     253A      2.312700   254A      2.320357   255A      2.355238
     256A      2.384822   257A      2.419191   258A      2.430969
     259A      2.435358   260A      2.438191   261A      2.439188
     262A      2.472650   263A      2.486714   264A      2.498297
     265A      2.519380   266A      2.522409   267A      2.525080
     268A      2.545971   269A      2.568884   270A      2.584817
     271A      2.592436   272A      2.606268   273A      2.625969
     274A      2.665233   275A      2.675466   276A      2.686416
     277A      2.714104   278A      2.716911   279A      2.718600
     280A      2.726628   281A      2.767946   282A      2.844015
     283A      2.865764   284A      2.904376   285A      2.939220
     286A      2.947254   287A      2.955846   288A      2.973385
     289A      3.001864   290A      3.017875   291A      3.032208
     292A      3.058307   293A      3.065246   294A      3.094139
     295A      3.113892   296A      3.220397   297A      3.245725
     298A      3.255980   299A      3.284914   300A      3.289654
     301A      3.321939   302A      3.337814   303A      3.340503
     304A      3.348631   305A      3.351399   306A      3.366154
     307A      3.412615   308A      3.413410   309A      3.470788
     310A      3.501956   311A      3.514928   312A      3.521454
     313A      3.590660   314A      3.604485   315A      3.605757
     316A      3.627844   317A      3.700513   318A      3.818955
     319A      3.830693   320A      3.940988   321A      3.969109
     322A      3.977265   323A      4.011414   324A      4.194773
     325A      4.242337   326A      4.253521   327A      4.442079
     328A      4.546841   329A      4.579282   330A      4.867644
     331A      4.976153   332A      5.057884   333A      5.261743
     334A      5.316573   335A      5.630213   336A      5.691334
     337A      5.827158   338A      5.952637   339A      6.283837
     340A      6.306901   341A      6.453772   342A      6.631211
     343A     18.125723   344A     18.207982   345A     19.017646
     346A     19.343040   347A     25.287072   348A     25.374791

    Final Occupation by Irrep:
              A
    DOCC [    21 ]

  @DF-RHF Final Energy:  -262.63994571998660

   => Energetics <=

    Nuclear Repulsion Energy =            212.5517311104853491
    One-Electron Energy =                -775.4594149926205091
    Two-Electron Energy =                 300.2677381621485893
    Total Energy =                       -262.6399457199865992

Computation Completed


Properties will be evaluated at   0.000000,   0.000000,   0.000000 [a0]

Properties computed using the SCF density matrix

  Nuclear Dipole Moment: [e a0]
     X:    55.0814      Y:    41.1737      Z:    17.9034

  Electronic Dipole Moment: [e a0]
     X:   -55.0814      Y:   -41.1737      Z:   -17.9034

  Dipole Moment: [e a0]
     X:     0.0000      Y:    -0.0000      Z:    -0.0000     Total:     0.0000

  Dipole Moment: [D]
     X:     0.0000      Y:    -0.0000      Z:    -0.0000     Total:     0.0000


*** tstop() called on atl1-1-01-015-20-r.pace.gatech.edu at Mon Nov 29 16:11:06 2021
Module time:
	user time   =      17.41 seconds =       0.29 minutes
	system time =       0.50 seconds =       0.01 minutes
	total time  =         10 seconds =       0.17 minutes
Total time:
	user time   =      45.79 seconds =       0.76 minutes
	system time =       1.51 seconds =       0.03 minutes
	total time  =         25 seconds =       0.42 minutes

  //>>>>>>>>>>>>>>>>>>>>>>>>>>>>>>>>>>>//
  //            Monomer B HF           //
  //<<<<<<<<<<<<<<<<<<<<<<<<<<<<<<<<<<<//


*** tstart() called on atl1-1-01-015-20-r.pace.gatech.edu
*** at Mon Nov 29 16:11:06 2021

   => Loading Basis Set <=

    Name: AUG-CC-PVDZ
    Role: ORBITAL
    Keyword: BASIS
    atoms 1-2, 11-12  entry N          line   218 file /storage/home/hhive1/csargent30/data/miniconda3/envs/psi4/share/psi4/basis/aug-cc-pvdz.gbs
    atoms 3-6, 13-16  entry H          line    40 file /storage/home/hhive1/csargent30/data/miniconda3/envs/psi4/share/psi4/basis/aug-cc-pvdz.gbs
    atoms 7-10, 17-20 entry C          line   182 file /storage/home/hhive1/csargent30/data/miniconda3/envs/psi4/share/psi4/basis/aug-cc-pvdz.gbs


         ---------------------------------------------------------
                                   SCF
               by Justin Turney, Rob Parrish, Andy Simmonett
                          and Daniel G. A. Smith
                              RHF Reference
                        2 Threads,   6675 MiB Core
         ---------------------------------------------------------

  ==> Geometry <==

    Molecular point group: c1
    Full point group: C1

    Geometry (in Bohr), charge = 0, multiplicity = 1:

       Center              X                  Y                   Z               Mass
    ------------   -----------------  -----------------  -----------------  -----------------
      Gh(N)          -1.330847580000     0.980326580000     0.426270370000    14.003074004430
      Gh(N)           3.953773330000     0.980326580000     0.426270370000    14.003074004430
      Gh(H)           3.567136740000     4.352185690000    -0.942309730000     1.007825032230
      Gh(H)          -0.944210980000     4.352185690000    -0.942309730000     1.007825032230
      Gh(H)          -0.944210980000    -2.391532530000     1.794850470000     1.007825032230
      Gh(H)           3.567136740000    -2.391532530000     1.794850470000     1.007825032230
      Gh(C)           2.622925760000     2.940979740000    -0.426270370000    12.000000000000
      Gh(C)           0.000000000000     2.940979740000    -0.426270370000    12.000000000000
      Gh(C)           0.000000000000    -0.980326580000     1.278811120000    12.000000000000
      Gh(C)           2.622925760000    -0.980326580000     1.278811120000    12.000000000000
         N           -1.330847580000     0.980326580000   -20.737339420000    14.003074004430
         N            3.953773330000     0.980326580000   -20.737339420000    14.003074004430
         H            3.567136740000     4.352185690000   -22.105919520000     1.007825032230
         H           -0.944210980000     4.352185690000   -22.105919520000     1.007825032230
         H           -0.944210980000    -2.391532530000   -19.368759320000     1.007825032230
         H            3.567136740000    -2.391532530000   -19.368759320000     1.007825032230
         C            2.622925760000     2.940979740000   -21.589880170000    12.000000000000
         C            0.000000000000     2.940979740000   -21.589880170000    12.000000000000
         C            0.000000000000    -0.980326580000   -19.884798670000    12.000000000000
         C            2.622925760000    -0.980326580000   -19.884798670000    12.000000000000

  Running in c1 symmetry.

  Rotational constants: A =      0.04787  B =      0.00171  C =      0.00169 [cm^-1]
  Rotational constants: A =   1435.16780  B =     51.22196  C =     50.80931 [MHz]
  Nuclear repulsion =  212.551731042300531

  Charge       = 0
  Multiplicity = 1
  Electrons    = 42
  Nalpha       = 21
  Nbeta        = 21

  ==> Algorithm <==

  SCF Algorithm Type is DF.
  DIIS enabled.
  MOM disabled.
  Fractional occupation disabled.
  Guess Type is SAD.
  Energy threshold   = 1.00e-10
  Density threshold  = 1.00e-10
  Integral threshold = 1.00e-12

  ==> Primary Basis <==

  Basis Set: AUG-CC-PVDZ
    Blend: AUG-CC-PVDZ
    Number of shells: 148
    Number of basis functions: 348
    Number of Cartesian functions: 372
    Spherical Harmonics?: true
    Max angular momentum: 2

   => Loading Basis Set <=

    Name: (AUG-CC-PVDZ AUX)
    Role: JKFIT
    Keyword: DF_BASIS_SCF
    atoms 1-2, 11-12  entry N          line   212 file /storage/home/hhive1/csargent30/data/miniconda3/envs/psi4/share/psi4/basis/aug-cc-pvdz-jkfit.gbs
    atoms 3-6, 13-16  entry H          line    70 file /storage/home/hhive1/csargent30/data/miniconda3/envs/psi4/share/psi4/basis/aug-cc-pvdz-jkfit.gbs
    atoms 7-10, 17-20 entry C          line   154 file /storage/home/hhive1/csargent30/data/miniconda3/envs/psi4/share/psi4/basis/aug-cc-pvdz-jkfit.gbs

  ==> Integral Setup <==

  ==> DiskDFJK: Density-Fitted J/K Matrices <==

    J tasked:                  Yes
    K tasked:                  Yes
    wK tasked:                  No
    OpenMP threads:              2
    Integrals threads:           2
    Memory [MiB]:             5006
    Algorithm:                Core
    Integral Cache:           LOAD
    Schwarz Cutoff:          1E-12
    Fitting Condition:       1E-10

   => Auxiliary Basis Set <=

  Basis Set: (AUG-CC-PVDZ AUX)
    Blend: AUG-CC-PVDZ-JKFIT
    Number of shells: 432
    Number of basis functions: 1288
    Number of Cartesian functions: 1492
    Spherical Harmonics?: true
    Max angular momentum: 3

  Minimum eigenvalue in the overlap matrix is 9.3589919746E-06.
  Reciprocal condition number of the overlap matrix is 7.2990828379E-07.
    Using symmetric orthogonalization.

  ==> Pre-Iterations <==

  SCF Guess: Superposition of Atomic Densities via on-the-fly atomic UHF (no occupation information).

   -------------------------
    Irrep   Nso     Nmo
   -------------------------
     A        348     348
   -------------------------
    Total     348     348
   -------------------------

  ==> Iterations <==

                           Total Energy        Delta E     RMS |[F,P]|

   @DF-RHF iter SAD:  -262.32523126946421   -2.62325e+02   0.00000e+00
   @DF-RHF iter   1:  -262.53940869358678   -2.14177e-01   1.11986e-03 DIIS
   @DF-RHF iter   2:  -262.62878922545099   -8.93805e-02   4.10665e-04 DIIS
   @DF-RHF iter   3:  -262.63862378819113   -9.83456e-03   1.28248e-04 DIIS
   @DF-RHF iter   4:  -262.63984854018855   -1.22475e-03   3.77600e-05 DIIS
   @DF-RHF iter   5:  -262.63993814073251   -8.96005e-05   7.55560e-06 DIIS
   @DF-RHF iter   6:  -262.63994469101232   -6.55028e-06   2.45265e-06 DIIS
   @DF-RHF iter   7:  -262.63994564339066   -9.52378e-07   6.40132e-07 DIIS
   @DF-RHF iter   8:  -262.63994571727983   -7.38892e-08   9.91694e-08 DIIS
   @DF-RHF iter   9:  -262.63994571926514   -1.98531e-09   1.88228e-08 DIIS
   @DF-RHF iter  10:  -262.63994571933569   -7.05427e-11   3.19156e-09 DIIS
   @DF-RHF iter  11:  -262.63994571933836   -2.67164e-12   5.22730e-10 DIIS
   @DF-RHF iter  12:  -262.63994571933790    4.54747e-13   9.88280e-11 DIIS
  Energy and wave function converged.


  ==> Post-Iterations <==

    Orbital Energies [Eh]
    ---------------------

    Doubly Occupied:

       1A    -15.598072     2A    -15.598053     3A    -11.274238
       4A    -11.274194     5A    -11.272974     6A    -11.272969
       7A     -1.313347     8A     -1.224175     9A     -1.076803
      10A     -0.922662    11A     -0.919282    12A     -0.760637
      13A     -0.738402    14A     -0.706214    15A     -0.647687
      16A     -0.580711    17A     -0.574369    18A     -0.497113
      19A     -0.434288    20A     -0.415855    21A     -0.359924

    Virtual:

      22A      0.021961    23A      0.034243    24A      0.039726
      25A      0.040714    26A      0.040719    27A      0.048605
      28A      0.058519    29A      0.058996    30A      0.066892
      31A      0.079628    32A      0.084969    33A      0.099369
      34A      0.100883    35A      0.103646    36A      0.107810
      37A      0.108685    38A      0.113446    39A      0.115871
      40A      0.121936    41A      0.123852    42A      0.124008
      43A      0.126965    44A      0.128668    45A      0.129495
      46A      0.134178    47A      0.135225    48A      0.152036
      49A      0.152694    50A      0.158848    51A      0.158851
      52A      0.161548    53A      0.162755    54A      0.165013
      55A      0.175061    56A      0.177029    57A      0.186954
      58A      0.198338    59A      0.203231    60A      0.204037
      61A      0.208256    62A      0.212759    63A      0.222475
      64A      0.233639    65A      0.239335    66A      0.251396
      67A      0.255344    68A      0.268090    69A      0.270685
      70A      0.278305    71A      0.288364    72A      0.293119
      73A      0.295856    74A      0.302565    75A      0.314827
      76A      0.320657    77A      0.320785    78A      0.328174
      79A      0.331955    80A      0.344142    81A      0.355451
      82A      0.358133    83A      0.365072    84A      0.380123
      85A      0.383541    86A      0.385482    87A      0.398517
      88A      0.402312    89A      0.410255    90A      0.419244
      91A      0.425097    92A      0.425593    93A      0.434219
      94A      0.437754    95A      0.441968    96A      0.452195
      97A      0.460836    98A      0.461264    99A      0.471492
     100A      0.476190   101A      0.478917   102A      0.492252
     103A      0.504957   104A      0.507870   105A      0.514994
     106A      0.523895   107A      0.524623   108A      0.529501
     109A      0.535764   110A      0.554612   111A      0.557932
     112A      0.561495   113A      0.564482   114A      0.570694
     115A      0.582017   116A      0.587628   117A      0.591506
     118A      0.593880   119A      0.596075   120A      0.608912
     121A      0.615295   122A      0.620394   123A      0.636567
     124A      0.643568   125A      0.644421   126A      0.649335
     127A      0.651462   128A      0.679391   129A      0.685126
     130A      0.685354   131A      0.687954   132A      0.690214
     133A      0.690417   134A      0.694865   135A      0.703947
     136A      0.719884   137A      0.728383   138A      0.746531
     139A      0.747698   140A      0.754841   141A      0.767093
     142A      0.775817   143A      0.781562   144A      0.793675
     145A      0.799833   146A      0.802814   147A      0.811190
     148A      0.811961   149A      0.819101   150A      0.824936
     151A      0.831097   152A      0.847536   153A      0.848121
     154A      0.849245   155A      0.868585   156A      0.880668
     157A      0.886404   158A      0.888173   159A      0.894796
     160A      0.906191   161A      0.929262   162A      0.929276
     163A      0.939690   164A      0.947648   165A      0.949468
     166A      0.970782   167A      0.976924   168A      0.986614
     169A      0.996659   170A      0.999001   171A      1.013043
     172A      1.032403   173A      1.033385   174A      1.047218
     175A      1.051231   176A      1.076276   177A      1.089383
     178A      1.090261   179A      1.100449   180A      1.122331
     181A      1.124043   182A      1.130717   183A      1.134524
     184A      1.140261   185A      1.158854   186A      1.168565
     187A      1.170654   188A      1.173566   189A      1.192556
     190A      1.193261   191A      1.200449   192A      1.222305
     193A      1.235441   194A      1.238834   195A      1.251022
     196A      1.307543   197A      1.309689   198A      1.318286
     199A      1.326405   200A      1.329617   201A      1.331159
     202A      1.346796   203A      1.389216   204A      1.414306
     205A      1.448377   206A      1.451538   207A      1.455445
     208A      1.479168   209A      1.486140   210A      1.487165
     211A      1.488120   212A      1.499271   213A      1.502905
     214A      1.518274   215A      1.572696   216A      1.574609
     217A      1.588300   218A      1.636023   219A      1.640522
     220A      1.648281   221A      1.659234   222A      1.676555
     223A      1.698040   224A      1.716994   225A      1.746647
     226A      1.755132   227A      1.783966   228A      1.815729
     229A      1.893325   230A      1.916163   231A      1.964929
     232A      1.987696   233A      2.031231   234A      2.070202
     235A      2.091553   236A      2.101090   237A      2.102864
     238A      2.119513   239A      2.142984   240A      2.156667
     241A      2.159204   242A      2.163390   243A      2.190511
     244A      2.193351   245A      2.194833   246A      2.200383
     247A      2.202474   248A      2.227643   249A      2.234775
     250A      2.241239   251A      2.249634   252A      2.309995
     253A      2.312700   254A      2.320357   255A      2.355238
     256A      2.384822   257A      2.419191   258A      2.430969
     259A      2.435358   260A      2.438191   261A      2.439188
     262A      2.472650   263A      2.486714   264A      2.498297
     265A      2.519380   266A      2.522409   267A      2.525080
     268A      2.545971   269A      2.568884   270A      2.584817
     271A      2.592436   272A      2.606268   273A      2.625969
     274A      2.665233   275A      2.675466   276A      2.686416
     277A      2.714104   278A      2.716911   279A      2.718600
     280A      2.726628   281A      2.767946   282A      2.844015
     283A      2.865764   284A      2.904376   285A      2.939220
     286A      2.947254   287A      2.955846   288A      2.973385
     289A      3.001864   290A      3.017875   291A      3.032208
     292A      3.058307   293A      3.065246   294A      3.094139
     295A      3.113892   296A      3.220397   297A      3.245725
     298A      3.255980   299A      3.284914   300A      3.289654
     301A      3.321939   302A      3.337814   303A      3.340503
     304A      3.348631   305A      3.351399   306A      3.366154
     307A      3.412615   308A      3.413410   309A      3.470788
     310A      3.501956   311A      3.514928   312A      3.521454
     313A      3.590660   314A      3.604485   315A      3.605757
     316A      3.627844   317A      3.700513   318A      3.818955
     319A      3.830693   320A      3.940988   321A      3.969109
     322A      3.977265   323A      4.011414   324A      4.194773
     325A      4.242337   326A      4.253521   327A      4.442079
     328A      4.546841   329A      4.579282   330A      4.867644
     331A      4.976153   332A      5.057884   333A      5.261743
     334A      5.316573   335A      5.630213   336A      5.691334
     337A      5.827158   338A      5.952637   339A      6.283837
     340A      6.306901   341A      6.453772   342A      6.631211
     343A     18.125723   344A     18.207982   345A     19.017646
     346A     19.343040   347A     25.287072   348A     25.374791

    Final Occupation by Irrep:
              A
    DOCC [    21 ]

  @DF-RHF Final Energy:  -262.63994571933790

   => Energetics <=

    Nuclear Repulsion Energy =            212.5517310423005313
    One-Electron Energy =                -775.4594148552731667
    Two-Electron Energy =                 300.2677380936347618
    Total Energy =                       -262.6399457193379021

Computation Completed


Properties will be evaluated at   0.000000,   0.000000,   0.000000 [a0]

Properties computed using the SCF density matrix

  Nuclear Dipole Moment: [e a0]
     X:    55.0814      Y:    41.1737      Z:  -870.9683

  Electronic Dipole Moment: [e a0]
     X:   -55.0814      Y:   -41.1737      Z:   870.9683

  Dipole Moment: [e a0]
     X:     0.0000      Y:     0.0000      Z:     0.0000     Total:     0.0000

  Dipole Moment: [D]
     X:     0.0000      Y:     0.0000      Z:     0.0000     Total:     0.0000


*** tstop() called on atl1-1-01-015-20-r.pace.gatech.edu at Mon Nov 29 16:11:16 2021
Module time:
	user time   =      17.43 seconds =       0.29 minutes
	system time =       0.50 seconds =       0.01 minutes
	total time  =         10 seconds =       0.17 minutes
Total time:
	user time   =      63.23 seconds =       1.05 minutes
	system time =       2.01 seconds =       0.03 minutes
	total time  =         35 seconds =       0.58 minutes
  Constructing Basis Sets for SAPT...

   => Loading Basis Set <=

    Name: (AUG-CC-PVDZ AUX)
    Role: RIFIT
    Keyword: DF_BASIS_SAPT
    atoms 1-2, 11-12  entry N          line   158 file /storage/home/hhive1/csargent30/data/miniconda3/envs/psi4/share/psi4/basis/aug-cc-pvdz-ri.gbs
    atoms 3-6, 13-16  entry H          line    30 file /storage/home/hhive1/csargent30/data/miniconda3/envs/psi4/share/psi4/basis/aug-cc-pvdz-ri.gbs
    atoms 7-10, 17-20 entry C          line   112 file /storage/home/hhive1/csargent30/data/miniconda3/envs/psi4/share/psi4/basis/aug-cc-pvdz-ri.gbs


  //>>>>>>>>>>>>>>>>>>>>>>>>>>>>>>>>>>>//
  //               SAPT0               //
  //<<<<<<<<<<<<<<<<<<<<<<<<<<<<<<<<<<<//


*** tstart() called on atl1-1-01-015-20-r.pace.gatech.edu
*** at Mon Nov 29 16:11:16 2021

        SAPT0
    Ed Hohenstein
     6 June 2009

      Orbital Information
  --------------------------
    NSO        =       348
    NMO        =       348
    NRI        =      1048
    NOCC A     =        21
    NOCC B     =        21
    FOCC A     =         6
    FOCC B     =         6
    NVIR A     =       327
    NVIR B     =       327

    Elst10,r            =     0.000002762710 [Eh]
    Exch10              =    -0.000000000379 [Eh]
    Exch10 (S^2)        =    -0.000000000379 [Eh]

    Iter     Energy [mEh]          dE [mEh]         Residual      Time [s]
       1      -0.00004025       0.000040255       0.071507059             0
       2      -0.00003611      -0.000004149       0.014668273             0
       3      -0.00004032       0.000004213       0.005204733             1
       4      -0.00004046       0.000000146       0.003076943             1
       5      -0.00004026      -0.000000203       0.000944590             1
       6      -0.00004026      -0.000000001       0.000287043             2
       7      -0.00004028       0.000000018       0.000096263             2
       8      -0.00004028       0.000000001       0.000028445             2
       9      -0.00004028      -0.000000002       0.000008611             3
      10      -0.00004028      -0.000000000       0.000003520             3
      11      -0.00004028       0.000000000       0.000001390             4
      12      -0.00004028      -0.000000000       0.000000492             4

    CHF Iterations converged


    Iter     Energy [mEh]          dE [mEh]         Residual      Time [s]
       1      -0.00004025       0.000040255       0.071507059             0
       2      -0.00003611      -0.000004149       0.014668273             1
       3      -0.00004032       0.000004213       0.005204733             1
       4      -0.00004046       0.000000146       0.003076943             1
       5      -0.00004026      -0.000000203       0.000944590             2
       6      -0.00004026      -0.000000001       0.000287043             2
       7      -0.00004028       0.000000018       0.000096263             2
       8      -0.00004028       0.000000001       0.000028445             3
       9      -0.00004028      -0.000000002       0.000008611             3
      10      -0.00004028      -0.000000000       0.000003520             4
      11      -0.00004028       0.000000000       0.000001390             4
      12      -0.00004028      -0.000000000       0.000000492             4

    CHF Iterations converged

    Ind20,r (A<-B)      =    -0.000000040277 [Eh]
    Ind20,r (B<-A)      =    -0.000000040277 [Eh]
    Ind20,r             =    -0.000000080554 [Eh]
    Exch-Ind20,r (A<-B) =     0.000000000405 [Eh]
    Exch-Ind20,r (B<-A) =     0.000000000405 [Eh]
    Exch-Ind20,r        =     0.000000000811 [Eh]
    Disp20              =    -0.000015541102 [Eh]
    Disp20 (SS)         =    -0.000007770551 [Eh]
    Disp20 (OS)         =    -0.000007770551 [Eh]
    Exch-Disp20         =     0.000000000156 [Eh]
    Exch-Disp20 (SS)    =     0.000000000132 [Eh]
    Exch-Disp20 (OS)    =     0.000000000023 [Eh]

    SAPT Results
  --------------------------------------------------------------------------------------------------------
    Electrostatics                  0.00276271 [mEh]       0.00173363 [kcal/mol]       0.00725349 [kJ/mol]
      Elst10,r                      0.00276271 [mEh]       0.00173363 [kcal/mol]       0.00725349 [kJ/mol]

    Exchange                       -0.00000038 [mEh]      -0.00000024 [kcal/mol]      -0.00000100 [kJ/mol]
      Exch10                       -0.00000038 [mEh]      -0.00000024 [kcal/mol]      -0.00000100 [kJ/mol]
      Exch10(S^2)                  -0.00000038 [mEh]      -0.00000024 [kcal/mol]      -0.00000100 [kJ/mol]

    Induction                      -0.00005810 [mEh]      -0.00003646 [kcal/mol]      -0.00015253 [kJ/mol]
      Ind20,r                      -0.00008055 [mEh]      -0.00005055 [kcal/mol]      -0.00021149 [kJ/mol]
      Exch-Ind20,r                  0.00000081 [mEh]       0.00000051 [kcal/mol]       0.00000213 [kJ/mol]
      delta HF,r (2)                0.00002165 [mEh]       0.00001358 [kcal/mol]       0.00005683 [kJ/mol]

    Dispersion                     -0.01554095 [mEh]      -0.00975209 [kcal/mol]      -0.04080275 [kJ/mol]
      Disp20                       -0.01554110 [mEh]      -0.00975219 [kcal/mol]      -0.04080316 [kJ/mol]
      Exch-Disp20                   0.00000016 [mEh]       0.00000010 [kcal/mol]       0.00000041 [kJ/mol]
      Disp20 (SS)                  -0.00777055 [mEh]      -0.00487609 [kcal/mol]      -0.02040158 [kJ/mol]
      Disp20 (OS)                  -0.00777055 [mEh]      -0.00487609 [kcal/mol]      -0.02040158 [kJ/mol]
      Exch-Disp20 (SS)              0.00000013 [mEh]       0.00000008 [kcal/mol]       0.00000035 [kJ/mol]
      Exch-Disp20 (OS)              0.00000002 [mEh]       0.00000001 [kcal/mol]       0.00000006 [kJ/mol]

  Total HF                          0.00270423 [mEh]       0.00169693 [kcal/mol]       0.00709997 [kJ/mol]
  Total SAPT0                      -0.01283671 [mEh]      -0.00805516 [kcal/mol]      -0.03370278 [kJ/mol]

  Special recipe for scaled SAPT0 (see Manual):
    Electrostatics sSAPT0           0.00276271 [mEh]       0.00173363 [kcal/mol]       0.00725349 [kJ/mol]
    Exchange sSAPT0                -0.00000038 [mEh]      -0.00000024 [kcal/mol]      -0.00000100 [kJ/mol]
    Induction sSAPT0               -0.00005810 [mEh]      -0.00003646 [kcal/mol]      -0.00015253 [kJ/mol]
    Dispersion sSAPT0              -0.01554095 [mEh]      -0.00975209 [kcal/mol]      -0.04080275 [kJ/mol]
  Total sSAPT0                     -0.01283671 [mEh]      -0.00805516 [kcal/mol]      -0.03370278 [kJ/mol]
  --------------------------------------------------------------------------------------------------------

*** tstop() called on atl1-1-01-015-20-r.pace.gatech.edu at Mon Nov 29 16:11:42 2021
Module time:
	user time   =      39.28 seconds =       0.65 minutes
	system time =       9.39 seconds =       0.16 minutes
	total time  =         26 seconds =       0.43 minutes
Total time:
	user time   =     102.75 seconds =       1.71 minutes
	system time =      11.41 seconds =       0.19 minutes
	total time  =         61 seconds =       1.02 minutes


Warning! sapt0 does not have an associated derived wavefunction.The returned wavefunction is the dimer SCF wavefunction.


    Psi4 stopped on: Monday, 29 November 2021 04:11PM
    Psi4 wall time for execution: 0:01:01.22

*** Psi4 exiting successfully. Buy a developer a beer!
