
    -----------------------------------------------------------------------
          Psi4: An Open-Source Ab Initio Electronic Structure Package
                               Psi4 1.4.1 release

                         Git: Rev {HEAD} cd00f19


    D. G. A. Smith, L. A. Burns, A. C. Simmonett, R. M. Parrish,
    M. C. Schieber, R. Galvelis, P. Kraus, H. Kruse, R. Di Remigio,
    A. Alenaizan, A. M. James, S. Lehtola, J. P. Misiewicz, M. Scheurer,
    R. A. Shaw, J. B. Schriber, Y. Xie, Z. L. Glick, D. A. Sirianni,
    J. S. O'Brien, J. M. Waldrop, A. Kumar, E. G. Hohenstein,
    B. P. Pritchard, B. R. Brooks, H. F. Schaefer III, A. Yu. Sokolov,
    K. Patkowski, A. E. DePrince III, U. Bozkaya, R. A. King,
    F. A. Evangelista, J. M. Turney, T. D. Crawford, C. D. Sherrill,
    J. Chem. Phys. 152(18) 184108 (2020). https://doi.org/10.1063/5.0006002

                            Additional Code Authors
    E. T. Seidl, C. L. Janssen, E. F. Valeev, M. L. Leininger,
    J. F. Gonthier, R. M. Richard, H. R. McAlexander, M. Saitow, X. Wang,
    P. Verma, and M. H. Lechner

             Previous Authors, Complete List of Code Contributors,
                       and Citations for Specific Modules
    https://github.com/psi4/psi4/blob/master/codemeta.json
    https://github.com/psi4/psi4/graphs/contributors
    http://psicode.org/psi4manual/master/introduction.html#citing-psifour

    -----------------------------------------------------------------------


    Psi4 started on: Monday, 29 November 2021 04:19PM

    Process ID: 433301
    Host:       atl1-1-01-013-7-l.pace.gatech.edu
    PSIDATADIR: /storage/home/hhive1/csargent30/data/miniconda3/envs/psi4/share/psi4
    Memory:     500.0 MiB
    Threads:    2

  ==> Input File <==

--------------------------------------------------------------------------
# PSI4 file produced by CrystaLattE

# Generated from:               pyrazine.xyz
# Psithon input for N-mer:      2mer-0+253
# Number of atoms per monomer:  [10, 10]
# Number of replicas:           4
# COM priority:                 2.153384011106e-05
# Minimum COM separations:      19.021
# Separation priority:          3.429337343687e-05
# Minimum monomer separations:  16.288
# Cutoff priority:              1.114158415567e-06
# Nuclear repulsion energy:     474.30741673580394

memory 7 GB

molecule Dimer_0_253 {
  N           -1.33084758       0.98032658       0.42627037
  N            3.95377333       0.98032658       0.42627037
  H            3.56713674       4.35218569      -0.94230973
  H           -0.94421098       4.35218569      -0.94230973
  H           -0.94421098      -2.39153253       1.79485047
  H            3.56713674      -2.39153253       1.79485047
  C            2.62292576       2.94097974      -0.42627037
  C            0.00000000       2.94097974      -0.42627037
  C            0.00000000      -0.98032658       1.27881112
  C            2.62292576      -0.98032658       1.27881112
--
  N          -36.57575160       0.98032658      -6.62826622
  N          -31.29113069       0.98032658      -6.62826622
  H          -31.67776728       4.35218569      -7.99684633
  H          -36.18911500       4.35218569      -7.99684633
  H          -36.18911500      -2.39153253      -5.25968612
  H          -31.67776728      -2.39153253      -5.25968612
  C          -32.62197826       2.94097974      -7.48080697
  C          -35.24490402       2.94097974      -7.48080697
  C          -35.24490402      -0.98032658      -5.77572548
  C          -32.62197826      -0.98032658      -5.77572548
units = au
no_com
no_reorient
}

set {
  e_convergence 10
  d_convergence 10
  scf_type df
  mp2_type df
  cc_type df
  freeze_core true
}

energy('sapt0/aug-cc-pvdz')

--------------------------------------------------------------------------

  Memory set to   6.519 GiB by Python driver.

Scratch directory: /tmp/

Scratch directory: /tmp/

  //>>>>>>>>>>>>>>>>>>>>>>>>>>>>>>>>>>>//
  //              Dimer HF             //
  //<<<<<<<<<<<<<<<<<<<<<<<<<<<<<<<<<<<//


*** tstart() called on atl1-1-01-013-7-l.pace.gatech.edu
*** at Mon Nov 29 16:19:04 2021

   => Loading Basis Set <=

    Name: AUG-CC-PVDZ
    Role: ORBITAL
    Keyword: BASIS
    atoms 1-2, 11-12  entry N          line   218 file /storage/home/hhive1/csargent30/data/miniconda3/envs/psi4/share/psi4/basis/aug-cc-pvdz.gbs
    atoms 3-6, 13-16  entry H          line    40 file /storage/home/hhive1/csargent30/data/miniconda3/envs/psi4/share/psi4/basis/aug-cc-pvdz.gbs
    atoms 7-10, 17-20 entry C          line   182 file /storage/home/hhive1/csargent30/data/miniconda3/envs/psi4/share/psi4/basis/aug-cc-pvdz.gbs


         ---------------------------------------------------------
                                   SCF
               by Justin Turney, Rob Parrish, Andy Simmonett
                          and Daniel G. A. Smith
                              RHF Reference
                        2 Threads,   6675 MiB Core
         ---------------------------------------------------------

  ==> Geometry <==

    Molecular point group: c1
    Full point group: C1

    Geometry (in Bohr), charge = 0, multiplicity = 1:

       Center              X                  Y                   Z               Mass
    ------------   -----------------  -----------------  -----------------  -----------------
         N           -1.330847580000     0.980326580000     0.426270370000    14.003074004430
         N            3.953773330000     0.980326580000     0.426270370000    14.003074004430
         H            3.567136740000     4.352185690000    -0.942309730000     1.007825032230
         H           -0.944210980000     4.352185690000    -0.942309730000     1.007825032230
         H           -0.944210980000    -2.391532530000     1.794850470000     1.007825032230
         H            3.567136740000    -2.391532530000     1.794850470000     1.007825032230
         C            2.622925760000     2.940979740000    -0.426270370000    12.000000000000
         C            0.000000000000     2.940979740000    -0.426270370000    12.000000000000
         C            0.000000000000    -0.980326580000     1.278811120000    12.000000000000
         C            2.622925760000    -0.980326580000     1.278811120000    12.000000000000
         N          -36.575751600000     0.980326580000    -6.628266220000    14.003074004430
         N          -31.291130690000     0.980326580000    -6.628266220000    14.003074004430
         H          -31.677767280000     4.352185690000    -7.996846330000     1.007825032230
         H          -36.189115000000     4.352185690000    -7.996846330000     1.007825032230
         H          -36.189115000000    -2.391532530000    -5.259686120000     1.007825032230
         H          -31.677767280000    -2.391532530000    -5.259686120000     1.007825032230
         C          -32.621978260000     2.940979740000    -7.480806970000    12.000000000000
         C          -35.244904020000     2.940979740000    -7.480806970000    12.000000000000
         C          -35.244904020000    -0.980326580000    -5.775725480000    12.000000000000
         C          -32.621978260000    -0.980326580000    -5.775725480000    12.000000000000

  Running in c1 symmetry.

  Rotational constants: A =      0.09297  B =      0.00062  C =      0.00062 [cm^-1]
  Rotational constants: A =   2787.07196  B =     18.69844  C =     18.58884 [MHz]
  Nuclear repulsion =  474.307416715320244

  Charge       = 0
  Multiplicity = 1
  Electrons    = 84
  Nalpha       = 42
  Nbeta        = 42

  ==> Algorithm <==

  SCF Algorithm Type is DF.
  DIIS enabled.
  MOM disabled.
  Fractional occupation disabled.
  Guess Type is SAD.
  Energy threshold   = 1.00e-10
  Density threshold  = 1.00e-10
  Integral threshold = 1.00e-12

  ==> Primary Basis <==

  Basis Set: AUG-CC-PVDZ
    Blend: AUG-CC-PVDZ
    Number of shells: 148
    Number of basis functions: 348
    Number of Cartesian functions: 372
    Spherical Harmonics?: true
    Max angular momentum: 2

   => Loading Basis Set <=

    Name: (AUG-CC-PVDZ AUX)
    Role: JKFIT
    Keyword: DF_BASIS_SCF
    atoms 1-2, 11-12  entry N          line   212 file /storage/home/hhive1/csargent30/data/miniconda3/envs/psi4/share/psi4/basis/aug-cc-pvdz-jkfit.gbs
    atoms 3-6, 13-16  entry H          line    70 file /storage/home/hhive1/csargent30/data/miniconda3/envs/psi4/share/psi4/basis/aug-cc-pvdz-jkfit.gbs
    atoms 7-10, 17-20 entry C          line   154 file /storage/home/hhive1/csargent30/data/miniconda3/envs/psi4/share/psi4/basis/aug-cc-pvdz-jkfit.gbs

  ==> Integral Setup <==

  ==> DiskDFJK: Density-Fitted J/K Matrices <==

    J tasked:                  Yes
    K tasked:                  Yes
    wK tasked:                  No
    OpenMP threads:              2
    Integrals threads:           2
    Memory [MiB]:             5006
    Algorithm:                Core
    Integral Cache:           SAVE
    Schwarz Cutoff:          1E-12
    Fitting Condition:       1E-10

   => Auxiliary Basis Set <=

  Basis Set: (AUG-CC-PVDZ AUX)
    Blend: AUG-CC-PVDZ-JKFIT
    Number of shells: 432
    Number of basis functions: 1288
    Number of Cartesian functions: 1492
    Spherical Harmonics?: true
    Max angular momentum: 3

  Minimum eigenvalue in the overlap matrix is 9.4891228890E-06.
  Reciprocal condition number of the overlap matrix is 7.4012047330E-07.
    Using symmetric orthogonalization.

  ==> Pre-Iterations <==

  SCF Guess: Superposition of Atomic Densities via on-the-fly atomic UHF (no occupation information).

   -------------------------
    Irrep   Nso     Nmo
   -------------------------
     A        348     348
   -------------------------
    Total     348     348
   -------------------------

  ==> Iterations <==

                           Total Energy        Delta E     RMS |[F,P]|

   @DF-RHF iter SAD:  -524.65046251548142   -5.24650e+02   0.00000e+00
   @DF-RHF iter   1:  -525.07880870663951   -4.28346e-01   1.58372e-03 DIIS
   @DF-RHF iter   2:  -525.25756979158518   -1.78761e-01   5.80779e-04 DIIS
   @DF-RHF iter   3:  -525.27723943233411   -1.96696e-02   1.81376e-04 DIIS
   @DF-RHF iter   4:  -525.27968904444651   -2.44961e-03   5.34032e-05 DIIS
   @DF-RHF iter   5:  -525.27986826282381   -1.79218e-04   1.06855e-05 DIIS
   @DF-RHF iter   6:  -525.27988136440445   -1.31016e-05   3.46882e-06 DIIS
   @DF-RHF iter   7:  -525.27988326945251   -1.90505e-06   9.05511e-07 DIIS
   @DF-RHF iter   8:  -525.27988341722789   -1.47775e-07   1.42643e-07 DIIS
   @DF-RHF iter   9:  -525.27988342117578   -3.94789e-09   4.20219e-08 DIIS
   @DF-RHF iter  10:  -525.27988342135075   -1.74964e-10   2.09894e-08 DIIS
   @DF-RHF iter  11:  -525.27988342139099   -4.02451e-11   2.69827e-09 DIIS
   @DF-RHF iter  12:  -525.27988342139349   -2.50111e-12   4.85822e-10 DIIS
   @DF-RHF iter  13:  -525.27988342139452   -1.02318e-12   2.08613e-10 DIIS
   @DF-RHF iter  14:  -525.27988342139315    1.36424e-12   5.90726e-11 DIIS
  Energy and wave function converged.


  ==> Post-Iterations <==

    Orbital Energies [Eh]
    ---------------------

    Doubly Occupied:

       1A    -15.597914     2A    -15.597914     3A    -15.597888
       4A    -15.597888     5A    -11.274079     6A    -11.274079
       7A    -11.274034     8A    -11.274034     9A    -11.272816
      10A    -11.272816    11A    -11.272810    12A    -11.272810
      13A     -1.313186    14A     -1.313186    15A     -1.224015
      16A     -1.224015    17A     -1.076644    18A     -1.076644
      19A     -0.922502    20A     -0.922502    21A     -0.919123
      22A     -0.919123    23A     -0.760477    24A     -0.760477
      25A     -0.738243    26A     -0.738243    27A     -0.706054
      28A     -0.706054    29A     -0.647528    30A     -0.647528
      31A     -0.580551    32A     -0.580551    33A     -0.574209
      34A     -0.574209    35A     -0.496950    36A     -0.496950
      37A     -0.434126    38A     -0.434126    39A     -0.415693
      40A     -0.415693    41A     -0.359766    42A     -0.359766

    Virtual:

      43A      0.034645    44A      0.034647    45A      0.040879
      46A      0.040880    47A      0.048541    48A      0.048560
      49A      0.058743    50A      0.058753    51A      0.067269
      52A      0.067269    53A      0.099578    54A      0.099578
      55A      0.101105    56A      0.101105    57A      0.114356
      58A      0.114356    59A      0.115111    60A      0.115111
      61A      0.123931    62A      0.123949    63A      0.125484
      64A      0.125484    65A      0.128820    66A      0.128821
      67A      0.133038    68A      0.133038    69A      0.158343
      70A      0.158346    71A      0.161231    72A      0.161236
      73A      0.161482    74A      0.161492    75A      0.164055
      76A      0.164098    77A      0.175333    78A      0.175344
      79A      0.187076    80A      0.187076    81A      0.204059
      82A      0.204059    83A      0.212704    84A      0.212707
      85A      0.250679    86A      0.250679    87A      0.267925
      88A      0.267925    89A      0.278213    90A      0.278220
      91A      0.287976    92A      0.287976    93A      0.293367
      94A      0.293367    95A      0.295909    96A      0.295941
      97A      0.314994    98A      0.314995    99A      0.320616
     100A      0.320616   101A      0.355588   102A      0.355595
     103A      0.358064   104A      0.358064   105A      0.364821
     106A      0.364821   107A      0.382731   108A      0.382752
     109A      0.399043   110A      0.399046   111A      0.410055
     112A      0.410056   113A      0.425606   114A      0.425616
     115A      0.434079   116A      0.434079   117A      0.437362
     118A      0.437365   119A      0.452253   120A      0.452258
     121A      0.471641   122A      0.471643   123A      0.492297
     124A      0.492297   125A      0.505017   126A      0.505017
     127A      0.515069   128A      0.515069   129A      0.524706
     130A      0.524707   131A      0.528825   132A      0.528827
     133A      0.554736   134A      0.554736   135A      0.570694
     136A      0.570694   137A      0.587695   138A      0.587695
     139A      0.591666   140A      0.591669   141A      0.593960
     142A      0.593960   143A      0.609090   144A      0.609090
     145A      0.643681   146A      0.643682   147A      0.644476
     148A      0.644481   149A      0.685296   150A      0.685297
     151A      0.687917   152A      0.687917   153A      0.690088
     154A      0.690089   155A      0.690499   156A      0.690506
     157A      0.694985   158A      0.694985   159A      0.703983
     160A      0.703998   161A      0.746713   162A      0.746714
     163A      0.754973   164A      0.754973   165A      0.767128
     166A      0.767128   167A      0.781567   168A      0.781567
     169A      0.799970   170A      0.799972   171A      0.802867
     172A      0.802868   173A      0.819176   174A      0.819176
     175A      0.831231   176A      0.831231   177A      0.847673
     178A      0.847677   179A      0.880703   180A      0.880703
     181A      0.886568   182A      0.886569   183A      0.894840
     184A      0.894840   185A      0.929428   186A      0.929429
     187A      0.939623   188A      0.939630   189A      0.949466
     190A      0.949466   191A      0.996813   192A      0.996813
     193A      0.999073   194A      0.999073   195A      1.013179
     196A      1.013179   197A      1.033528   198A      1.033531
     199A      1.051352   200A      1.051352   201A      1.089544
     202A      1.089544   203A      1.100607   204A      1.100607
     205A      1.122356   206A      1.122357   207A      1.124203
     208A      1.124204   209A      1.134520   210A      1.134521
     211A      1.158898   212A      1.158904   213A      1.173724
     214A      1.173724   215A      1.235577   216A      1.235578
     217A      1.238964   218A      1.238964   219A      1.309832
     220A      1.309834   221A      1.331308   222A      1.331308
     223A      1.414440   224A      1.414440   225A      1.451688
     226A      1.451689   227A      1.486300   228A      1.486300
     229A      1.488237   230A      1.488237   231A      1.499369
     232A      1.499370   233A      1.503005   234A      1.503005
     235A      1.518408   236A      1.518409   237A      1.572845
     238A      1.572845   239A      1.574351   240A      1.574352
     241A      1.587994   242A      1.587996   243A      1.636140
     244A      1.636141   245A      1.640663   246A      1.640663
     247A      1.648375   248A      1.648384   249A      1.676711
     250A      1.676711   251A      1.717151   252A      1.717151
     253A      1.746756   254A      1.746756   255A      1.755263
     256A      1.755263   257A      1.783922   258A      1.783923
     259A      1.815886   260A      1.815886   261A      1.893481
     262A      1.893481   263A      1.916296   264A      1.916297
     265A      1.964987   266A      1.964987   267A      1.987835
     268A      1.987835   269A      2.031361   270A      2.031361
     271A      2.091707   272A      2.091707   273A      2.101186
     274A      2.101189   275A      2.143113   276A      2.143113
     277A      2.163515   278A      2.163515   279A      2.190646
     280A      2.190646   281A      2.193460   282A      2.193463
     283A      2.200538   284A      2.200539   285A      2.202569
     286A      2.202569   287A      2.227785   288A      2.227786
     289A      2.312921   290A      2.312921   291A      2.355387
     292A      2.355387   293A      2.431118   294A      2.431118
     295A      2.439137   296A      2.439137   297A      2.519538
     298A      2.519538   299A      2.522554   300A      2.522554
     301A      2.584929   302A      2.584930   303A      2.606428
     304A      2.606428   305A      2.665384   306A      2.665384
     307A      2.675571   308A      2.675571   309A      2.686556
     310A      2.686556   311A      2.714142   312A      2.714149
     313A      2.718750   314A      2.718751   315A      2.844175
     316A      2.844175   317A      2.865922   318A      2.865922
     319A      2.939356   320A      2.939357   321A      3.002015
     322A      3.002015   323A      3.018032   324A      3.018033
     325A      3.032347   326A      3.032348   327A      3.094295
     328A      3.094296   329A      3.220471   330A      3.220481
     331A      3.256139   332A      3.256139   333A      3.285041
     334A      3.285041   335A      3.366300   336A      3.366300
     337A      3.413525   338A      3.413526   339A      3.515080
     340A      3.515081   341A      3.590814   342A      3.590814
     343A      3.627929   344A      3.627930   345A      3.977394
     346A      3.977396   347A      4.253645   348A      4.253645

    Final Occupation by Irrep:
              A
    DOCC [    42 ]

  @DF-RHF Final Energy:  -525.27988342139315

   => Energetics <=

    Nuclear Repulsion Energy =            474.3074167153202438
    One-Electron Energy =               -1649.3401658717057217
    Two-Electron Energy =                 649.7528657349923833
    Total Energy =                       -525.2798834213931514

Computation Completed


Properties will be evaluated at   0.000000,   0.000000,   0.000000 [a0]

Properties computed using the SCF density matrix

  Nuclear Dipole Moment: [e a0]
     X: -1370.1231      Y:    82.3474      Z:  -260.4838

  Electronic Dipole Moment: [e a0]
     X:  1370.1231      Y:   -82.3474      Z:   260.4838

  Dipole Moment: [e a0]
     X:     0.0000      Y:    -0.0000      Z:    -0.0000     Total:     0.0000

  Dipole Moment: [D]
     X:     0.0000      Y:    -0.0000      Z:    -0.0000     Total:     0.0000


*** tstop() called on atl1-1-01-013-7-l.pace.gatech.edu at Mon Nov 29 16:19:17 2021
Module time:
	user time   =      23.29 seconds =       0.39 minutes
	system time =       0.93 seconds =       0.02 minutes
	total time  =         13 seconds =       0.22 minutes
Total time:
	user time   =      23.29 seconds =       0.39 minutes
	system time =       0.93 seconds =       0.02 minutes
	total time  =         13 seconds =       0.22 minutes

  //>>>>>>>>>>>>>>>>>>>>>>>>>>>>>>>>>>>//
  //            Monomer A HF           //
  //<<<<<<<<<<<<<<<<<<<<<<<<<<<<<<<<<<<//


*** tstart() called on atl1-1-01-013-7-l.pace.gatech.edu
*** at Mon Nov 29 16:19:17 2021

   => Loading Basis Set <=

    Name: AUG-CC-PVDZ
    Role: ORBITAL
    Keyword: BASIS
    atoms 1-2, 11-12  entry N          line   218 file /storage/home/hhive1/csargent30/data/miniconda3/envs/psi4/share/psi4/basis/aug-cc-pvdz.gbs
    atoms 3-6, 13-16  entry H          line    40 file /storage/home/hhive1/csargent30/data/miniconda3/envs/psi4/share/psi4/basis/aug-cc-pvdz.gbs
    atoms 7-10, 17-20 entry C          line   182 file /storage/home/hhive1/csargent30/data/miniconda3/envs/psi4/share/psi4/basis/aug-cc-pvdz.gbs


         ---------------------------------------------------------
                                   SCF
               by Justin Turney, Rob Parrish, Andy Simmonett
                          and Daniel G. A. Smith
                              RHF Reference
                        2 Threads,   6675 MiB Core
         ---------------------------------------------------------

  ==> Geometry <==

    Molecular point group: c1
    Full point group: C1

    Geometry (in Bohr), charge = 0, multiplicity = 1:

       Center              X                  Y                   Z               Mass
    ------------   -----------------  -----------------  -----------------  -----------------
         N           -1.330847580000     0.980326580000     0.426270370000    14.003074004430
         N            3.953773330000     0.980326580000     0.426270370000    14.003074004430
         H            3.567136740000     4.352185690000    -0.942309730000     1.007825032230
         H           -0.944210980000     4.352185690000    -0.942309730000     1.007825032230
         H           -0.944210980000    -2.391532530000     1.794850470000     1.007825032230
         H            3.567136740000    -2.391532530000     1.794850470000     1.007825032230
         C            2.622925760000     2.940979740000    -0.426270370000    12.000000000000
         C            0.000000000000     2.940979740000    -0.426270370000    12.000000000000
         C            0.000000000000    -0.980326580000     1.278811120000    12.000000000000
         C            2.622925760000    -0.980326580000     1.278811120000    12.000000000000
      Gh(N)         -36.575751600000     0.980326580000    -6.628266220000    14.003074004430
      Gh(N)         -31.291130690000     0.980326580000    -6.628266220000    14.003074004430
      Gh(H)         -31.677767280000     4.352185690000    -7.996846330000     1.007825032230
      Gh(H)         -36.189115000000     4.352185690000    -7.996846330000     1.007825032230
      Gh(H)         -36.189115000000    -2.391532530000    -5.259686120000     1.007825032230
      Gh(H)         -31.677767280000    -2.391532530000    -5.259686120000     1.007825032230
      Gh(C)         -32.621978260000     2.940979740000    -7.480806970000    12.000000000000
      Gh(C)         -35.244904020000     2.940979740000    -7.480806970000    12.000000000000
      Gh(C)         -35.244904020000    -0.980326580000    -5.775725480000    12.000000000000
      Gh(C)         -32.621978260000    -0.980326580000    -5.775725480000    12.000000000000

  Running in c1 symmetry.

  Rotational constants: A =      0.09297  B =      0.00062  C =      0.00062 [cm^-1]
  Rotational constants: A =   2787.07196  B =     18.69844  C =     18.58884 [MHz]
  Nuclear repulsion =  212.551731110485349

  Charge       = 0
  Multiplicity = 1
  Electrons    = 42
  Nalpha       = 21
  Nbeta        = 21

  ==> Algorithm <==

  SCF Algorithm Type is DF.
  DIIS enabled.
  MOM disabled.
  Fractional occupation disabled.
  Guess Type is SAD.
  Energy threshold   = 1.00e-10
  Density threshold  = 1.00e-10
  Integral threshold = 1.00e-12

  ==> Primary Basis <==

  Basis Set: AUG-CC-PVDZ
    Blend: AUG-CC-PVDZ
    Number of shells: 148
    Number of basis functions: 348
    Number of Cartesian functions: 372
    Spherical Harmonics?: true
    Max angular momentum: 2

   => Loading Basis Set <=

    Name: (AUG-CC-PVDZ AUX)
    Role: JKFIT
    Keyword: DF_BASIS_SCF
    atoms 1-2, 11-12  entry N          line   212 file /storage/home/hhive1/csargent30/data/miniconda3/envs/psi4/share/psi4/basis/aug-cc-pvdz-jkfit.gbs
    atoms 3-6, 13-16  entry H          line    70 file /storage/home/hhive1/csargent30/data/miniconda3/envs/psi4/share/psi4/basis/aug-cc-pvdz-jkfit.gbs
    atoms 7-10, 17-20 entry C          line   154 file /storage/home/hhive1/csargent30/data/miniconda3/envs/psi4/share/psi4/basis/aug-cc-pvdz-jkfit.gbs

  ==> Integral Setup <==

  ==> DiskDFJK: Density-Fitted J/K Matrices <==

    J tasked:                  Yes
    K tasked:                  Yes
    wK tasked:                  No
    OpenMP threads:              2
    Integrals threads:           2
    Memory [MiB]:             5006
    Algorithm:                Core
    Integral Cache:           LOAD
    Schwarz Cutoff:          1E-12
    Fitting Condition:       1E-10

   => Auxiliary Basis Set <=

  Basis Set: (AUG-CC-PVDZ AUX)
    Blend: AUG-CC-PVDZ-JKFIT
    Number of shells: 432
    Number of basis functions: 1288
    Number of Cartesian functions: 1492
    Spherical Harmonics?: true
    Max angular momentum: 3

  Minimum eigenvalue in the overlap matrix is 9.4891228890E-06.
  Reciprocal condition number of the overlap matrix is 7.4012047330E-07.
    Using symmetric orthogonalization.

  ==> Pre-Iterations <==

  SCF Guess: Superposition of Atomic Densities via on-the-fly atomic UHF (no occupation information).

   -------------------------
    Irrep   Nso     Nmo
   -------------------------
     A        348     348
   -------------------------
    Total     348     348
   -------------------------

  ==> Iterations <==

                           Total Energy        Delta E     RMS |[F,P]|

   @DF-RHF iter SAD:  -262.32523125846660   -2.62325e+02   0.00000e+00
   @DF-RHF iter   1:  -262.53940798122147   -2.14177e-01   1.11985e-03 DIIS
   @DF-RHF iter   2:  -262.62878837371932   -8.93804e-02   4.10664e-04 DIIS
   @DF-RHF iter   3:  -262.63862291830355   -9.83454e-03   1.28248e-04 DIIS
   @DF-RHF iter   4:  -262.63984767157666   -1.22475e-03   3.77599e-05 DIIS
   @DF-RHF iter   5:  -262.63993727203842   -8.96005e-05   7.55558e-06 DIIS
   @DF-RHF iter   6:  -262.63994382229737   -6.55026e-06   2.45264e-06 DIIS
   @DF-RHF iter   7:  -262.63994477467020   -9.52373e-07   6.40130e-07 DIIS
   @DF-RHF iter   8:  -262.63994484855823   -7.38880e-08   9.91693e-08 DIIS
   @DF-RHF iter   9:  -262.63994485054434   -1.98611e-09   1.88228e-08 DIIS
   @DF-RHF iter  10:  -262.63994485061505   -7.07132e-11   3.19151e-09 DIIS
   @DF-RHF iter  11:  -262.63994485061681   -1.76215e-12   5.22317e-10 DIIS
   @DF-RHF iter  12:  -262.63994485061738   -5.68434e-13   9.54294e-11 DIIS
  Energy and wave function converged.


  ==> Post-Iterations <==

    Orbital Energies [Eh]
    ---------------------

    Doubly Occupied:

       1A    -15.598072     2A    -15.598053     3A    -11.274239
       4A    -11.274194     5A    -11.272975     6A    -11.272969
       7A     -1.313347     8A     -1.224176     9A     -1.076803
      10A     -0.922662    11A     -0.919282    12A     -0.760637
      13A     -0.738402    14A     -0.706214    15A     -0.647687
      16A     -0.580711    17A     -0.574369    18A     -0.497113
      19A     -0.434288    20A     -0.415855    21A     -0.359924

    Virtual:

      22A      0.022516    23A      0.034497    24A      0.039577
      25A      0.040738    26A      0.041277    27A      0.048383
      28A      0.058591    29A      0.058934    30A      0.067113
      31A      0.079759    32A      0.085120    33A      0.099419
      34A      0.100948    35A      0.104078    36A      0.108599
      37A      0.108948    38A      0.114201    39A      0.114951
      40A      0.122573    41A      0.123776    42A      0.125322
      43A      0.125661    44A      0.128661    45A      0.131023
      46A      0.132889    47A      0.134233    48A      0.152189
      49A      0.153121    50A      0.158199    51A      0.159427
      52A      0.161084    53A      0.161326    54A      0.163914
      55A      0.175179    56A      0.176831    57A      0.186918
      58A      0.197892    59A      0.203908    60A      0.203980
      61A      0.206745    62A      0.212538    63A      0.222459
      64A      0.233703    65A      0.239534    66A      0.250517
      67A      0.255308    68A      0.267756    69A      0.270864
      70A      0.278056    71A      0.287812    72A      0.293207
      73A      0.295749    74A      0.302398    75A      0.314832
      76A      0.320457    77A      0.320726    78A      0.328242
      79A      0.331383    80A      0.344214    81A      0.355428
      82A      0.357908    83A      0.364661    84A      0.380584
      85A      0.382583    86A      0.385715    87A      0.398891
      88A      0.401361    89A      0.409895    90A      0.419358
      91A      0.425027    92A      0.425453    93A      0.433925
      94A      0.437212    95A      0.442015    96A      0.452092
      97A      0.460739    98A      0.461184    99A      0.471483
     100A      0.476167   101A      0.478903   102A      0.492140
     103A      0.504862   104A      0.507901   105A      0.514914
     106A      0.523853   107A      0.524547   108A      0.528668
     109A      0.535811   110A      0.554577   111A      0.557929
     112A      0.561592   113A      0.564578   114A      0.570535
     115A      0.581987   116A      0.587535   117A      0.591506
     118A      0.593799   119A      0.596095   120A      0.608929
     121A      0.615225   122A      0.620244   123A      0.636448
     124A      0.643517   125A      0.644321   126A      0.649435
     127A      0.651572   128A      0.679496   129A      0.685136
     130A      0.685401   131A      0.687758   132A      0.689932
     133A      0.690342   134A      0.694828   135A      0.703829
     136A      0.719967   137A      0.728471   138A      0.746558
     139A      0.746868   140A      0.754817   141A      0.766965
     142A      0.775763   143A      0.781406   144A      0.793715
     145A      0.799815   146A      0.802710   147A      0.811177
     148A      0.812058   149A      0.819016   150A      0.824838
     151A      0.831071   152A      0.847513   153A      0.848146
     154A      0.849269   155A      0.868688   156A      0.880544
     157A      0.886410   158A      0.888231   159A      0.894682
     160A      0.906185   161A      0.929196   162A      0.929272
     163A      0.939466   164A      0.947775   165A      0.949307
     166A      0.970860   167A      0.977021   168A      0.986724
     169A      0.996652   170A      0.998908   171A      1.013015
     172A      1.032502   173A      1.033370   174A      1.047012
     175A      1.051194   176A      1.076346   177A      1.089381
     178A      1.090364   179A      1.100445   180A      1.122199
     181A      1.124044   182A      1.130747   183A      1.134362
     184A      1.140349   185A      1.158740   186A      1.168670
     187A      1.170759   188A      1.173565   189A      1.192292
     190A      1.193326   191A      1.200558   192A      1.222399
     193A      1.235416   194A      1.238804   195A      1.251113
     196A      1.307642   197A      1.309673   198A      1.318347
     199A      1.326498   200A      1.329697   201A      1.331148
     202A      1.346894   203A      1.389295   204A      1.414282
     205A      1.448476   206A      1.451526   207A      1.455545
     208A      1.479218   209A      1.486137   210A      1.487291
     211A      1.488075   212A      1.499211   213A      1.502846
     214A      1.518252   215A      1.572686   216A      1.574192
     217A      1.587836   218A      1.635982   219A      1.640505
     220A      1.648219   221A      1.659326   222A      1.676552
     223A      1.698152   224A      1.716991   225A      1.746597
     226A      1.755104   227A      1.783762   228A      1.815727
     229A      1.893323   230A      1.916137   231A      1.964829
     232A      1.987674   233A      2.031202   234A      2.070309
     235A      2.091548   236A      2.101028   237A      2.102848
     238A      2.119526   239A      2.142953   240A      2.156759
     241A      2.159273   242A      2.163355   243A      2.190488
     244A      2.193301   245A      2.194944   246A      2.200380
     247A      2.202410   248A      2.227626   249A      2.234858
     250A      2.241286   251A      2.249743   252A      2.310097
     253A      2.312761   254A      2.319631   255A      2.355229
     256A      2.384889   257A      2.419294   258A      2.430957
     259A      2.435498   260A      2.438250   261A      2.438977
     262A      2.472760   263A      2.486808   264A      2.498404
     265A      2.519379   266A      2.522395   267A      2.525152
     268A      2.546080   269A      2.568411   270A      2.584766
     271A      2.592456   272A      2.606266   273A      2.626057
     274A      2.665224   275A      2.675409   276A      2.686395
     277A      2.713985   278A      2.716981   279A      2.718591
     280A      2.726737   281A      2.768020   282A      2.844014
     283A      2.865761   284A      2.904121   285A      2.939196
     286A      2.947313   287A      2.955837   288A      2.973428
     289A      3.001855   290A      3.017872   291A      3.032186
     292A      3.058416   293A      3.065313   294A      3.094137
     295A      3.113953   296A      3.220316   297A      3.245814
     298A      3.255980   299A      3.284880   300A      3.289770
     301A      3.322046   302A      3.337831   303A      3.340573
     304A      3.348745   305A      3.351471   306A      3.366140
     307A      3.412717   308A      3.413367   309A      3.470872
     310A      3.502071   311A      3.514920   312A      3.521485
     313A      3.590655   314A      3.604558   315A      3.605766
     316A      3.627769   317A      3.700606   318A      3.819042
     319A      3.830808   320A      3.941090   321A      3.969214
     322A      3.977236   323A      4.011521   324A      4.194877
     325A      4.242368   326A      4.253485   327A      4.442108
     328A      4.546949   329A      4.579398   330A      4.867761
     331A      4.976262   332A      5.057972   333A      5.261831
     334A      5.316658   335A      5.630317   336A      5.691444
     337A      5.827269   338A      5.952749   339A      6.283947
     340A      6.307007   341A      6.453883   342A      6.631318
     343A     18.125834   344A     18.208096   345A     19.017692
     346A     19.343117   347A     25.287184   348A     25.374904

    Final Occupation by Irrep:
              A
    DOCC [    21 ]

  @DF-RHF Final Energy:  -262.63994485061738

   => Energetics <=

    Nuclear Repulsion Energy =            212.5517311104853491
    One-Electron Energy =                -775.4594096250202711
    Two-Electron Energy =                 300.2677336639175678
    Total Energy =                       -262.6399448506173826

Computation Completed


Properties will be evaluated at   0.000000,   0.000000,   0.000000 [a0]

Properties computed using the SCF density matrix

  Nuclear Dipole Moment: [e a0]
     X:    55.0814      Y:    41.1737      Z:    17.9034

  Electronic Dipole Moment: [e a0]
     X:   -55.0814      Y:   -41.1737      Z:   -17.9034

  Dipole Moment: [e a0]
     X:    -0.0000      Y:     0.0000      Z:     0.0000     Total:     0.0000

  Dipole Moment: [D]
     X:    -0.0000      Y:     0.0000      Z:     0.0000     Total:     0.0000


*** tstop() called on atl1-1-01-013-7-l.pace.gatech.edu at Mon Nov 29 16:19:25 2021
Module time:
	user time   =      13.95 seconds =       0.23 minutes
	system time =       0.47 seconds =       0.01 minutes
	total time  =          8 seconds =       0.13 minutes
Total time:
	user time   =      37.25 seconds =       0.62 minutes
	system time =       1.40 seconds =       0.02 minutes
	total time  =         21 seconds =       0.35 minutes

  //>>>>>>>>>>>>>>>>>>>>>>>>>>>>>>>>>>>//
  //            Monomer B HF           //
  //<<<<<<<<<<<<<<<<<<<<<<<<<<<<<<<<<<<//


*** tstart() called on atl1-1-01-013-7-l.pace.gatech.edu
*** at Mon Nov 29 16:19:25 2021

   => Loading Basis Set <=

    Name: AUG-CC-PVDZ
    Role: ORBITAL
    Keyword: BASIS
    atoms 1-2, 11-12  entry N          line   218 file /storage/home/hhive1/csargent30/data/miniconda3/envs/psi4/share/psi4/basis/aug-cc-pvdz.gbs
    atoms 3-6, 13-16  entry H          line    40 file /storage/home/hhive1/csargent30/data/miniconda3/envs/psi4/share/psi4/basis/aug-cc-pvdz.gbs
    atoms 7-10, 17-20 entry C          line   182 file /storage/home/hhive1/csargent30/data/miniconda3/envs/psi4/share/psi4/basis/aug-cc-pvdz.gbs


         ---------------------------------------------------------
                                   SCF
               by Justin Turney, Rob Parrish, Andy Simmonett
                          and Daniel G. A. Smith
                              RHF Reference
                        2 Threads,   6675 MiB Core
         ---------------------------------------------------------

  ==> Geometry <==

    Molecular point group: c1
    Full point group: C1

    Geometry (in Bohr), charge = 0, multiplicity = 1:

       Center              X                  Y                   Z               Mass
    ------------   -----------------  -----------------  -----------------  -----------------
      Gh(N)          -1.330847580000     0.980326580000     0.426270370000    14.003074004430
      Gh(N)           3.953773330000     0.980326580000     0.426270370000    14.003074004430
      Gh(H)           3.567136740000     4.352185690000    -0.942309730000     1.007825032230
      Gh(H)          -0.944210980000     4.352185690000    -0.942309730000     1.007825032230
      Gh(H)          -0.944210980000    -2.391532530000     1.794850470000     1.007825032230
      Gh(H)           3.567136740000    -2.391532530000     1.794850470000     1.007825032230
      Gh(C)           2.622925760000     2.940979740000    -0.426270370000    12.000000000000
      Gh(C)           0.000000000000     2.940979740000    -0.426270370000    12.000000000000
      Gh(C)           0.000000000000    -0.980326580000     1.278811120000    12.000000000000
      Gh(C)           2.622925760000    -0.980326580000     1.278811120000    12.000000000000
         N          -36.575751600000     0.980326580000    -6.628266220000    14.003074004430
         N          -31.291130690000     0.980326580000    -6.628266220000    14.003074004430
         H          -31.677767280000     4.352185690000    -7.996846330000     1.007825032230
         H          -36.189115000000     4.352185690000    -7.996846330000     1.007825032230
         H          -36.189115000000    -2.391532530000    -5.259686120000     1.007825032230
         H          -31.677767280000    -2.391532530000    -5.259686120000     1.007825032230
         C          -32.621978260000     2.940979740000    -7.480806970000    12.000000000000
         C          -35.244904020000     2.940979740000    -7.480806970000    12.000000000000
         C          -35.244904020000    -0.980326580000    -5.775725480000    12.000000000000
         C          -32.621978260000    -0.980326580000    -5.775725480000    12.000000000000

  Running in c1 symmetry.

  Rotational constants: A =      0.09297  B =      0.00062  C =      0.00062 [cm^-1]
  Rotational constants: A =   2787.07196  B =     18.69844  C =     18.58884 [MHz]
  Nuclear repulsion =  212.551731091174673

  Charge       = 0
  Multiplicity = 1
  Electrons    = 42
  Nalpha       = 21
  Nbeta        = 21

  ==> Algorithm <==

  SCF Algorithm Type is DF.
  DIIS enabled.
  MOM disabled.
  Fractional occupation disabled.
  Guess Type is SAD.
  Energy threshold   = 1.00e-10
  Density threshold  = 1.00e-10
  Integral threshold = 1.00e-12

  ==> Primary Basis <==

  Basis Set: AUG-CC-PVDZ
    Blend: AUG-CC-PVDZ
    Number of shells: 148
    Number of basis functions: 348
    Number of Cartesian functions: 372
    Spherical Harmonics?: true
    Max angular momentum: 2

   => Loading Basis Set <=

    Name: (AUG-CC-PVDZ AUX)
    Role: JKFIT
    Keyword: DF_BASIS_SCF
    atoms 1-2, 11-12  entry N          line   212 file /storage/home/hhive1/csargent30/data/miniconda3/envs/psi4/share/psi4/basis/aug-cc-pvdz-jkfit.gbs
    atoms 3-6, 13-16  entry H          line    70 file /storage/home/hhive1/csargent30/data/miniconda3/envs/psi4/share/psi4/basis/aug-cc-pvdz-jkfit.gbs
    atoms 7-10, 17-20 entry C          line   154 file /storage/home/hhive1/csargent30/data/miniconda3/envs/psi4/share/psi4/basis/aug-cc-pvdz-jkfit.gbs

  ==> Integral Setup <==

  ==> DiskDFJK: Density-Fitted J/K Matrices <==

    J tasked:                  Yes
    K tasked:                  Yes
    wK tasked:                  No
    OpenMP threads:              2
    Integrals threads:           2
    Memory [MiB]:             5006
    Algorithm:                Core
    Integral Cache:           LOAD
    Schwarz Cutoff:          1E-12
    Fitting Condition:       1E-10

   => Auxiliary Basis Set <=

  Basis Set: (AUG-CC-PVDZ AUX)
    Blend: AUG-CC-PVDZ-JKFIT
    Number of shells: 432
    Number of basis functions: 1288
    Number of Cartesian functions: 1492
    Spherical Harmonics?: true
    Max angular momentum: 3

  Minimum eigenvalue in the overlap matrix is 9.4891228890E-06.
  Reciprocal condition number of the overlap matrix is 7.4012047330E-07.
    Using symmetric orthogonalization.

  ==> Pre-Iterations <==

  SCF Guess: Superposition of Atomic Densities via on-the-fly atomic UHF (no occupation information).

   -------------------------
    Irrep   Nso     Nmo
   -------------------------
     A        348     348
   -------------------------
    Total     348     348
   -------------------------

  ==> Iterations <==

                           Total Energy        Delta E     RMS |[F,P]|

   @DF-RHF iter SAD:  -262.32523125640517   -2.62325e+02   0.00000e+00
   @DF-RHF iter   1:  -262.53940798081607   -2.14177e-01   1.11985e-03 DIIS
   @DF-RHF iter   2:  -262.62878837331289   -8.93804e-02   4.10664e-04 DIIS
   @DF-RHF iter   3:  -262.63862291791611   -9.83454e-03   1.28248e-04 DIIS
   @DF-RHF iter   4:  -262.63984767119041   -1.22475e-03   3.77599e-05 DIIS
   @DF-RHF iter   5:  -262.63993727165121   -8.96005e-05   7.55558e-06 DIIS
   @DF-RHF iter   6:  -262.63994382191066   -6.55026e-06   2.45264e-06 DIIS
   @DF-RHF iter   7:  -262.63994477428446   -9.52374e-07   6.40130e-07 DIIS
   @DF-RHF iter   8:  -262.63994484817277   -7.38883e-08   9.91693e-08 DIIS
   @DF-RHF iter   9:  -262.63994485015832   -1.98554e-09   1.88228e-08 DIIS
   @DF-RHF iter  10:  -262.63994485022874   -7.04290e-11   3.19151e-09 DIIS
   @DF-RHF iter  11:  -262.63994485023062   -1.87583e-12   5.22319e-10 DIIS
   @DF-RHF iter  12:  -262.63994485023096   -3.41061e-13   9.54517e-11 DIIS
  Energy and wave function converged.


  ==> Post-Iterations <==

    Orbital Energies [Eh]
    ---------------------

    Doubly Occupied:

       1A    -15.598072     2A    -15.598053     3A    -11.274239
       4A    -11.274194     5A    -11.272975     6A    -11.272969
       7A     -1.313347     8A     -1.224176     9A     -1.076803
      10A     -0.922662    11A     -0.919282    12A     -0.760637
      13A     -0.738402    14A     -0.706214    15A     -0.647687
      16A     -0.580711    17A     -0.574369    18A     -0.497113
      19A     -0.434288    20A     -0.415855    21A     -0.359924

    Virtual:

      22A      0.022516    23A      0.034497    24A      0.039577
      25A      0.040738    26A      0.041277    27A      0.048383
      28A      0.058591    29A      0.058934    30A      0.067113
      31A      0.079759    32A      0.085120    33A      0.099419
      34A      0.100948    35A      0.104078    36A      0.108599
      37A      0.108948    38A      0.114201    39A      0.114951
      40A      0.122573    41A      0.123776    42A      0.125322
      43A      0.125661    44A      0.128661    45A      0.131023
      46A      0.132889    47A      0.134233    48A      0.152189
      49A      0.153121    50A      0.158199    51A      0.159427
      52A      0.161084    53A      0.161326    54A      0.163914
      55A      0.175179    56A      0.176831    57A      0.186918
      58A      0.197892    59A      0.203908    60A      0.203980
      61A      0.206745    62A      0.212538    63A      0.222459
      64A      0.233703    65A      0.239534    66A      0.250517
      67A      0.255308    68A      0.267756    69A      0.270864
      70A      0.278056    71A      0.287812    72A      0.293207
      73A      0.295748    74A      0.302398    75A      0.314832
      76A      0.320457    77A      0.320726    78A      0.328242
      79A      0.331383    80A      0.344214    81A      0.355428
      82A      0.357908    83A      0.364661    84A      0.380584
      85A      0.382583    86A      0.385715    87A      0.398891
      88A      0.401361    89A      0.409895    90A      0.419358
      91A      0.425027    92A      0.425453    93A      0.433925
      94A      0.437212    95A      0.442015    96A      0.452092
      97A      0.460739    98A      0.461184    99A      0.471483
     100A      0.476167   101A      0.478903   102A      0.492140
     103A      0.504862   104A      0.507901   105A      0.514914
     106A      0.523853   107A      0.524547   108A      0.528668
     109A      0.535811   110A      0.554577   111A      0.557929
     112A      0.561592   113A      0.564578   114A      0.570535
     115A      0.581987   116A      0.587535   117A      0.591506
     118A      0.593799   119A      0.596095   120A      0.608929
     121A      0.615225   122A      0.620244   123A      0.636448
     124A      0.643517   125A      0.644321   126A      0.649435
     127A      0.651572   128A      0.679496   129A      0.685136
     130A      0.685401   131A      0.687758   132A      0.689932
     133A      0.690342   134A      0.694828   135A      0.703829
     136A      0.719967   137A      0.728471   138A      0.746558
     139A      0.746868   140A      0.754817   141A      0.766965
     142A      0.775763   143A      0.781406   144A      0.793715
     145A      0.799815   146A      0.802710   147A      0.811177
     148A      0.812058   149A      0.819016   150A      0.824838
     151A      0.831071   152A      0.847513   153A      0.848146
     154A      0.849269   155A      0.868688   156A      0.880544
     157A      0.886410   158A      0.888231   159A      0.894682
     160A      0.906185   161A      0.929196   162A      0.929272
     163A      0.939466   164A      0.947775   165A      0.949307
     166A      0.970860   167A      0.977021   168A      0.986724
     169A      0.996652   170A      0.998908   171A      1.013015
     172A      1.032502   173A      1.033370   174A      1.047012
     175A      1.051194   176A      1.076346   177A      1.089381
     178A      1.090364   179A      1.100445   180A      1.122199
     181A      1.124044   182A      1.130747   183A      1.134362
     184A      1.140349   185A      1.158740   186A      1.168670
     187A      1.170759   188A      1.173565   189A      1.192292
     190A      1.193326   191A      1.200558   192A      1.222399
     193A      1.235416   194A      1.238804   195A      1.251113
     196A      1.307642   197A      1.309673   198A      1.318347
     199A      1.326498   200A      1.329697   201A      1.331148
     202A      1.346894   203A      1.389295   204A      1.414282
     205A      1.448476   206A      1.451526   207A      1.455545
     208A      1.479218   209A      1.486137   210A      1.487291
     211A      1.488075   212A      1.499211   213A      1.502846
     214A      1.518252   215A      1.572686   216A      1.574192
     217A      1.587836   218A      1.635982   219A      1.640505
     220A      1.648219   221A      1.659326   222A      1.676552
     223A      1.698152   224A      1.716991   225A      1.746597
     226A      1.755104   227A      1.783762   228A      1.815727
     229A      1.893323   230A      1.916137   231A      1.964829
     232A      1.987674   233A      2.031202   234A      2.070309
     235A      2.091548   236A      2.101028   237A      2.102848
     238A      2.119526   239A      2.142953   240A      2.156759
     241A      2.159273   242A      2.163355   243A      2.190488
     244A      2.193301   245A      2.194944   246A      2.200380
     247A      2.202410   248A      2.227626   249A      2.234858
     250A      2.241286   251A      2.249743   252A      2.310097
     253A      2.312761   254A      2.319631   255A      2.355229
     256A      2.384889   257A      2.419294   258A      2.430957
     259A      2.435498   260A      2.438250   261A      2.438977
     262A      2.472760   263A      2.486808   264A      2.498404
     265A      2.519379   266A      2.522395   267A      2.525152
     268A      2.546080   269A      2.568411   270A      2.584766
     271A      2.592456   272A      2.606266   273A      2.626057
     274A      2.665224   275A      2.675409   276A      2.686395
     277A      2.713985   278A      2.716981   279A      2.718591
     280A      2.726737   281A      2.768020   282A      2.844014
     283A      2.865761   284A      2.904121   285A      2.939196
     286A      2.947313   287A      2.955837   288A      2.973428
     289A      3.001855   290A      3.017872   291A      3.032186
     292A      3.058416   293A      3.065313   294A      3.094137
     295A      3.113953   296A      3.220316   297A      3.245814
     298A      3.255980   299A      3.284880   300A      3.289770
     301A      3.322046   302A      3.337831   303A      3.340573
     304A      3.348745   305A      3.351471   306A      3.366140
     307A      3.412717   308A      3.413367   309A      3.470872
     310A      3.502071   311A      3.514920   312A      3.521485
     313A      3.590655   314A      3.604558   315A      3.605766
     316A      3.627769   317A      3.700606   318A      3.819042
     319A      3.830808   320A      3.941090   321A      3.969214
     322A      3.977236   323A      4.011521   324A      4.194877
     325A      4.242368   326A      4.253485   327A      4.442108
     328A      4.546949   329A      4.579398   330A      4.867761
     331A      4.976262   332A      5.057972   333A      5.261831
     334A      5.316658   335A      5.630317   336A      5.691444
     337A      5.827269   338A      5.952749   339A      6.283947
     340A      6.307007   341A      6.453883   342A      6.631318
     343A     18.125834   344A     18.208096   345A     19.017692
     346A     19.343117   347A     25.287184   348A     25.374904

    Final Occupation by Irrep:
              A
    DOCC [    21 ]

  @DF-RHF Final Energy:  -262.63994485023096

   => Energetics <=

    Nuclear Repulsion Energy =            212.5517310911746733
    One-Electron Energy =                -775.4594095895713508
    Two-Electron Energy =                 300.2677336481656880
    Total Energy =                       -262.6399448502309610

Computation Completed


Properties will be evaluated at   0.000000,   0.000000,   0.000000 [a0]

Properties computed using the SCF density matrix

  Nuclear Dipole Moment: [e a0]
     X: -1425.2045      Y:    41.1737      Z:  -278.3872

  Electronic Dipole Moment: [e a0]
     X:  1425.2045      Y:   -41.1737      Z:   278.3872

  Dipole Moment: [e a0]
     X:     0.0000      Y:    -0.0000      Z:    -0.0000     Total:     0.0000

  Dipole Moment: [D]
     X:     0.0000      Y:    -0.0000      Z:    -0.0000     Total:     0.0000


*** tstop() called on atl1-1-01-013-7-l.pace.gatech.edu at Mon Nov 29 16:19:33 2021
Module time:
	user time   =      13.61 seconds =       0.23 minutes
	system time =       0.45 seconds =       0.01 minutes
	total time  =          8 seconds =       0.13 minutes
Total time:
	user time   =      50.87 seconds =       0.85 minutes
	system time =       1.85 seconds =       0.03 minutes
	total time  =         29 seconds =       0.48 minutes
  Constructing Basis Sets for SAPT...

   => Loading Basis Set <=

    Name: (AUG-CC-PVDZ AUX)
    Role: RIFIT
    Keyword: DF_BASIS_SAPT
    atoms 1-2, 11-12  entry N          line   158 file /storage/home/hhive1/csargent30/data/miniconda3/envs/psi4/share/psi4/basis/aug-cc-pvdz-ri.gbs
    atoms 3-6, 13-16  entry H          line    30 file /storage/home/hhive1/csargent30/data/miniconda3/envs/psi4/share/psi4/basis/aug-cc-pvdz-ri.gbs
    atoms 7-10, 17-20 entry C          line   112 file /storage/home/hhive1/csargent30/data/miniconda3/envs/psi4/share/psi4/basis/aug-cc-pvdz-ri.gbs


  //>>>>>>>>>>>>>>>>>>>>>>>>>>>>>>>>>>>//
  //               SAPT0               //
  //<<<<<<<<<<<<<<<<<<<<<<<<<<<<<<<<<<<//


*** tstart() called on atl1-1-01-013-7-l.pace.gatech.edu
*** at Mon Nov 29 16:19:33 2021

        SAPT0
    Ed Hohenstein
     6 June 2009

      Orbital Information
  --------------------------
    NSO        =       348
    NMO        =       348
    NRI        =      1048
    NOCC A     =        21
    NOCC B     =        21
    FOCC A     =         6
    FOCC B     =         6
    NVIR A     =       327
    NVIR B     =       327

    Elst10,r            =     0.000006251530 [Eh]
    Exch10              =     0.000000000000 [Eh]
    Exch10 (S^2)        =     0.000000000000 [Eh]

    Iter     Energy [mEh]          dE [mEh]         Residual      Time [s]
       1      -0.00000577       0.000005774       0.029096780             1
       2      -0.00000514      -0.000000637       0.006570512             1
       3      -0.00000570       0.000000562       0.002277600             1
       4      -0.00000576       0.000000057       0.000679405             2
       5      -0.00000575      -0.000000011       0.000281846             2
       6      -0.00000574      -0.000000005       0.000111959             2
       7      -0.00000574       0.000000000       0.000057871             3
       8      -0.00000574       0.000000001       0.000019707             3
       9      -0.00000574      -0.000000000       0.000007078             3
      10      -0.00000574      -0.000000000       0.000002240             4
      11      -0.00000574       0.000000000       0.000000823             4

    CHF Iterations converged


    Iter     Energy [mEh]          dE [mEh]         Residual      Time [s]
       1      -0.00000577       0.000005774       0.029096780             1
       2      -0.00000514      -0.000000637       0.006570512             1
       3      -0.00000570       0.000000562       0.002277601             1
       4      -0.00000576       0.000000057       0.000679405             2
       5      -0.00000575      -0.000000011       0.000281846             2
       6      -0.00000574      -0.000000005       0.000111959             2
       7      -0.00000574       0.000000000       0.000057871             3
       8      -0.00000574       0.000000001       0.000019707             3
       9      -0.00000574      -0.000000000       0.000007078             3
      10      -0.00000574      -0.000000000       0.000002240             4
      11      -0.00000574       0.000000000       0.000000823             4

    CHF Iterations converged

    Ind20,r (A<-B)      =    -0.000000005741 [Eh]
    Ind20,r (B<-A)      =    -0.000000005741 [Eh]
    Ind20,r             =    -0.000000011483 [Eh]
    Exch-Ind20,r (A<-B) =     0.000000000000 [Eh]
    Exch-Ind20,r (B<-A) =     0.000000000000 [Eh]
    Exch-Ind20,r        =     0.000000000000 [Eh]
    Disp20              =    -0.000000893826 [Eh]
    Disp20 (SS)         =    -0.000000446913 [Eh]
    Disp20 (OS)         =    -0.000000446913 [Eh]
    Exch-Disp20         =     0.000000000000 [Eh]
    Exch-Disp20 (SS)    =     0.000000000000 [Eh]
    Exch-Disp20 (OS)    =     0.000000000000 [Eh]

    SAPT Results
  --------------------------------------------------------------------------------------------------------
    Electrostatics                  0.00625153 [mEh]       0.00392289 [kcal/mol]       0.01641339 [kJ/mol]
      Elst10,r                      0.00625153 [mEh]       0.00392289 [kcal/mol]       0.01641339 [kJ/mol]

    Exchange                        0.00000000 [mEh]       0.00000000 [kcal/mol]       0.00000000 [kJ/mol]
      Exch10                        0.00000000 [mEh]       0.00000000 [kcal/mol]       0.00000000 [kJ/mol]
      Exch10(S^2)                   0.00000000 [mEh]       0.00000000 [kcal/mol]       0.00000000 [kJ/mol]

    Induction                       0.00002792 [mEh]       0.00001752 [kcal/mol]       0.00007332 [kJ/mol]
      Ind20,r                      -0.00001148 [mEh]      -0.00000721 [kcal/mol]      -0.00003015 [kJ/mol]
      Exch-Ind20,r                  0.00000000 [mEh]       0.00000000 [kcal/mol]       0.00000000 [kJ/mol]
      delta HF,r (2)                0.00003941 [mEh]       0.00002473 [kcal/mol]       0.00010346 [kJ/mol]

    Dispersion                     -0.00089383 [mEh]      -0.00056088 [kcal/mol]      -0.00234674 [kJ/mol]
      Disp20                       -0.00089383 [mEh]      -0.00056088 [kcal/mol]      -0.00234674 [kJ/mol]
      Exch-Disp20                   0.00000000 [mEh]       0.00000000 [kcal/mol]       0.00000000 [kJ/mol]
      Disp20 (SS)                  -0.00044691 [mEh]      -0.00028044 [kcal/mol]      -0.00117337 [kJ/mol]
      Disp20 (OS)                  -0.00044691 [mEh]      -0.00028044 [kcal/mol]      -0.00117337 [kJ/mol]
      Exch-Disp20 (SS)              0.00000000 [mEh]       0.00000000 [kcal/mol]       0.00000000 [kJ/mol]
      Exch-Disp20 (OS)              0.00000000 [mEh]       0.00000000 [kcal/mol]       0.00000000 [kJ/mol]

  Total HF                          0.00627946 [mEh]       0.00394042 [kcal/mol]       0.01648671 [kJ/mol]
  Total SAPT0                       0.00538563 [mEh]       0.00337953 [kcal/mol]       0.01413997 [kJ/mol]

  Special recipe for scaled SAPT0 (see Manual):
    Electrostatics sSAPT0           0.00625153 [mEh]       0.00392289 [kcal/mol]       0.01641339 [kJ/mol]
    Exchange sSAPT0                 0.00000000 [mEh]       0.00000000 [kcal/mol]       0.00000000 [kJ/mol]
    Induction sSAPT0                0.00002792 [mEh]       0.00001752 [kcal/mol]       0.00007332 [kJ/mol]
    Dispersion sSAPT0              -0.00089383 [mEh]      -0.00056088 [kcal/mol]      -0.00234674 [kJ/mol]
  Total sSAPT0                      0.00538563 [mEh]       0.00337953 [kcal/mol]       0.01413997 [kJ/mol]
  --------------------------------------------------------------------------------------------------------

*** tstop() called on atl1-1-01-013-7-l.pace.gatech.edu at Mon Nov 29 16:19:58 2021
Module time:
	user time   =      37.42 seconds =       0.62 minutes
	system time =       8.78 seconds =       0.15 minutes
	total time  =         25 seconds =       0.42 minutes
Total time:
	user time   =      88.53 seconds =       1.48 minutes
	system time =      10.65 seconds =       0.18 minutes
	total time  =         54 seconds =       0.90 minutes


Warning! sapt0 does not have an associated derived wavefunction.The returned wavefunction is the dimer SCF wavefunction.


    Psi4 stopped on: Monday, 29 November 2021 04:19PM
    Psi4 wall time for execution: 0:00:53.50

*** Psi4 exiting successfully. Buy a developer a beer!
