
    -----------------------------------------------------------------------
          Psi4: An Open-Source Ab Initio Electronic Structure Package
                               Psi4 1.4.1 release

                         Git: Rev {HEAD} cd00f19


    D. G. A. Smith, L. A. Burns, A. C. Simmonett, R. M. Parrish,
    M. C. Schieber, R. Galvelis, P. Kraus, H. Kruse, R. Di Remigio,
    A. Alenaizan, A. M. James, S. Lehtola, J. P. Misiewicz, M. Scheurer,
    R. A. Shaw, J. B. Schriber, Y. Xie, Z. L. Glick, D. A. Sirianni,
    J. S. O'Brien, J. M. Waldrop, A. Kumar, E. G. Hohenstein,
    B. P. Pritchard, B. R. Brooks, H. F. Schaefer III, A. Yu. Sokolov,
    K. Patkowski, A. E. DePrince III, U. Bozkaya, R. A. King,
    F. A. Evangelista, J. M. Turney, T. D. Crawford, C. D. Sherrill,
    J. Chem. Phys. 152(18) 184108 (2020). https://doi.org/10.1063/5.0006002

                            Additional Code Authors
    E. T. Seidl, C. L. Janssen, E. F. Valeev, M. L. Leininger,
    J. F. Gonthier, R. M. Richard, H. R. McAlexander, M. Saitow, X. Wang,
    P. Verma, and M. H. Lechner

             Previous Authors, Complete List of Code Contributors,
                       and Citations for Specific Modules
    https://github.com/psi4/psi4/blob/master/codemeta.json
    https://github.com/psi4/psi4/graphs/contributors
    http://psicode.org/psi4manual/master/introduction.html#citing-psifour

    -----------------------------------------------------------------------


    Psi4 started on: Monday, 29 November 2021 04:10PM

    Process ID: 428834
    Host:       atl1-1-01-013-7-l.pace.gatech.edu
    PSIDATADIR: /storage/home/hhive1/csargent30/data/miniconda3/envs/psi4/share/psi4
    Memory:     500.0 MiB
    Threads:    2

  ==> Input File <==

--------------------------------------------------------------------------
# PSI4 file produced by CrystaLattE

# Generated from:               pyrazine.xyz
# Psithon input for N-mer:      2mer-0+224
# Number of atoms per monomer:  [10, 10]
# Number of replicas:           8
# COM priority:                 2.682407884409e-05
# Minimum COM separations:      17.678
# Separation priority:          3.762986054055e-05
# Minimum monomer separations:  15.792
# Cutoff priority:              1.260985652086e-06
# Nuclear repulsion energy:     477.67390925331915

memory 7 GB

molecule Dimer_0_224 {
  N           -1.33084758       0.98032658       0.42627037
  N            3.95377333       0.98032658       0.42627037
  H            3.56713674       4.35218569      -0.94230973
  H           -0.94421098       4.35218569      -0.94230973
  H           -0.94421098      -2.39153253       1.79485047
  H            3.56713674      -2.39153253       1.79485047
  C            2.62292576       2.94097974      -0.42627037
  C            0.00000000       2.94097974      -0.42627037
  C            0.00000000      -0.98032658       1.27881112
  C            2.62292576      -0.98032658       1.27881112
--
  N          -10.14207358      -4.54731131     -31.31914432
  N           -4.85745267      -4.54731131     -31.31914432
  H           -9.75543698      -7.91917042     -32.68772442
  H           -9.75543698      -1.17545220     -29.95056422
  H           -5.24408927      -7.91917042     -32.68772442
  H           -5.24408927      -1.17545220     -29.95056422
  C           -8.81122601      -6.50796447     -32.17168507
  C           -8.81122601      -2.58665815     -30.46660357
  C           -6.18830025      -6.50796447     -32.17168507
  C           -6.18830025      -2.58665815     -30.46660357
units = au
no_com
no_reorient
}

set {
  e_convergence 10
  d_convergence 10
  scf_type df
  mp2_type df
  cc_type df
  freeze_core true
}

energy('sapt0/aug-cc-pvdz')

--------------------------------------------------------------------------

  Memory set to   6.519 GiB by Python driver.

Scratch directory: /tmp/

Scratch directory: /tmp/

  //>>>>>>>>>>>>>>>>>>>>>>>>>>>>>>>>>>>//
  //              Dimer HF             //
  //<<<<<<<<<<<<<<<<<<<<<<<<<<<<<<<<<<<//


*** tstart() called on atl1-1-01-013-7-l.pace.gatech.edu
*** at Mon Nov 29 16:10:42 2021

   => Loading Basis Set <=

    Name: AUG-CC-PVDZ
    Role: ORBITAL
    Keyword: BASIS
    atoms 1-2, 11-12  entry N          line   218 file /storage/home/hhive1/csargent30/data/miniconda3/envs/psi4/share/psi4/basis/aug-cc-pvdz.gbs
    atoms 3-6, 13-16  entry H          line    40 file /storage/home/hhive1/csargent30/data/miniconda3/envs/psi4/share/psi4/basis/aug-cc-pvdz.gbs
    atoms 7-10, 17-20 entry C          line   182 file /storage/home/hhive1/csargent30/data/miniconda3/envs/psi4/share/psi4/basis/aug-cc-pvdz.gbs


         ---------------------------------------------------------
                                   SCF
               by Justin Turney, Rob Parrish, Andy Simmonett
                          and Daniel G. A. Smith
                              RHF Reference
                        2 Threads,   6675 MiB Core
         ---------------------------------------------------------

  ==> Geometry <==

    Molecular point group: c1
    Full point group: C1

    Geometry (in Bohr), charge = 0, multiplicity = 1:

       Center              X                  Y                   Z               Mass
    ------------   -----------------  -----------------  -----------------  -----------------
         N           -1.330847580000     0.980326580000     0.426270370000    14.003074004430
         N            3.953773330000     0.980326580000     0.426270370000    14.003074004430
         H            3.567136740000     4.352185690000    -0.942309730000     1.007825032230
         H           -0.944210980000     4.352185690000    -0.942309730000     1.007825032230
         H           -0.944210980000    -2.391532530000     1.794850470000     1.007825032230
         H            3.567136740000    -2.391532530000     1.794850470000     1.007825032230
         C            2.622925760000     2.940979740000    -0.426270370000    12.000000000000
         C            0.000000000000     2.940979740000    -0.426270370000    12.000000000000
         C            0.000000000000    -0.980326580000     1.278811120000    12.000000000000
         C            2.622925760000    -0.980326580000     1.278811120000    12.000000000000
         N          -10.142073580000    -4.547311310000   -31.319144320000    14.003074004430
         N           -4.857452670000    -4.547311310000   -31.319144320000    14.003074004430
         H           -9.755436980000    -7.919170420000   -32.687724420000     1.007825032230
         H           -9.755436980000    -1.175452200000   -29.950564220000     1.007825032230
         H           -5.244089270000    -7.919170420000   -32.687724420000     1.007825032230
         H           -5.244089270000    -1.175452200000   -29.950564220000     1.007825032230
         C           -8.811226010000    -6.507964470000   -32.171685070000    12.000000000000
         C           -8.811226010000    -2.586658150000   -30.466603570000    12.000000000000
         C           -6.188300250000    -6.507964470000   -32.171685070000    12.000000000000
         C           -6.188300250000    -2.586658150000   -30.466603570000    12.000000000000

  Running in c1 symmetry.

  Rotational constants: A =      0.05042  B =      0.00071  C =      0.00070 [cm^-1]
  Rotational constants: A =   1511.46489  B =     21.14911  C =     21.09698 [MHz]
  Nuclear repulsion =  477.673909217498590

  Charge       = 0
  Multiplicity = 1
  Electrons    = 84
  Nalpha       = 42
  Nbeta        = 42

  ==> Algorithm <==

  SCF Algorithm Type is DF.
  DIIS enabled.
  MOM disabled.
  Fractional occupation disabled.
  Guess Type is SAD.
  Energy threshold   = 1.00e-10
  Density threshold  = 1.00e-10
  Integral threshold = 1.00e-12

  ==> Primary Basis <==

  Basis Set: AUG-CC-PVDZ
    Blend: AUG-CC-PVDZ
    Number of shells: 148
    Number of basis functions: 348
    Number of Cartesian functions: 372
    Spherical Harmonics?: true
    Max angular momentum: 2

   => Loading Basis Set <=

    Name: (AUG-CC-PVDZ AUX)
    Role: JKFIT
    Keyword: DF_BASIS_SCF
    atoms 1-2, 11-12  entry N          line   212 file /storage/home/hhive1/csargent30/data/miniconda3/envs/psi4/share/psi4/basis/aug-cc-pvdz-jkfit.gbs
    atoms 3-6, 13-16  entry H          line    70 file /storage/home/hhive1/csargent30/data/miniconda3/envs/psi4/share/psi4/basis/aug-cc-pvdz-jkfit.gbs
    atoms 7-10, 17-20 entry C          line   154 file /storage/home/hhive1/csargent30/data/miniconda3/envs/psi4/share/psi4/basis/aug-cc-pvdz-jkfit.gbs

  ==> Integral Setup <==

  ==> DiskDFJK: Density-Fitted J/K Matrices <==

    J tasked:                  Yes
    K tasked:                  Yes
    wK tasked:                  No
    OpenMP threads:              2
    Integrals threads:           2
    Memory [MiB]:             5006
    Algorithm:                Core
    Integral Cache:           SAVE
    Schwarz Cutoff:          1E-12
    Fitting Condition:       1E-10

   => Auxiliary Basis Set <=

  Basis Set: (AUG-CC-PVDZ AUX)
    Blend: AUG-CC-PVDZ-JKFIT
    Number of shells: 432
    Number of basis functions: 1288
    Number of Cartesian functions: 1492
    Spherical Harmonics?: true
    Max angular momentum: 3

  Minimum eigenvalue in the overlap matrix is 9.4895339400E-06.
  Reciprocal condition number of the overlap matrix is 7.4015252942E-07.
    Using symmetric orthogonalization.

  ==> Pre-Iterations <==

  SCF Guess: Superposition of Atomic Densities via on-the-fly atomic UHF (no occupation information).

   -------------------------
    Irrep   Nso     Nmo
   -------------------------
     A        348     348
   -------------------------
    Total     348     348
   -------------------------

  ==> Iterations <==

                           Total Energy        Delta E     RMS |[F,P]|

   @DF-RHF iter SAD:  -524.65046251234423   -5.24650e+02   0.00000e+00
   @DF-RHF iter   1:  -525.07881292487650   -4.28350e-01   1.58372e-03 DIIS
   @DF-RHF iter   2:  -525.25757383402583   -1.78761e-01   5.80778e-04 DIIS
   @DF-RHF iter   3:  -525.27724353076337   -1.96697e-02   1.81372e-04 DIIS
   @DF-RHF iter   4:  -525.27969308308093   -2.44955e-03   5.34008e-05 DIIS
   @DF-RHF iter   5:  -525.27987228423558   -1.79201e-04   1.06853e-05 DIIS
   @DF-RHF iter   6:  -525.27988538483328   -1.31006e-05   3.46861e-06 DIIS
   @DF-RHF iter   7:  -525.27988728962623   -1.90479e-06   9.05315e-07 DIIS
   @DF-RHF iter   8:  -525.27988743741003   -1.47784e-07   1.40378e-07 DIIS
   @DF-RHF iter   9:  -525.27988744137997   -3.96994e-09   2.76252e-08 DIIS
   @DF-RHF iter  10:  -525.27988744152003   -1.40062e-10   9.85183e-09 DIIS
   @DF-RHF iter  11:  -525.27988744152856   -8.52651e-12   3.39518e-09 DIIS
   @DF-RHF iter  12:  -525.27988744152981   -1.25056e-12   5.54967e-10 DIIS
   @DF-RHF iter  13:  -525.27988744153049   -6.82121e-13   2.94555e-10 DIIS
   @DF-RHF iter  14:  -525.27988744153026    2.27374e-13   5.99961e-11 DIIS
  Energy and wave function converged.


  ==> Post-Iterations <==

    Orbital Energies [Eh]
    ---------------------

    Doubly Occupied:

       1A    -15.598089     2A    -15.598069     3A    -15.598026
       4A    -15.598007     5A    -11.274256     6A    -11.274211
       7A    -11.274193     8A    -11.274149     9A    -11.272993
      10A    -11.272985    11A    -11.272929    12A    -11.272924
      13A     -1.313363    14A     -1.313301    15A     -1.224192
      16A     -1.224130    17A     -1.076820    18A     -1.076758
      19A     -0.922679    20A     -0.922617    21A     -0.919300
      22A     -0.919237    23A     -0.760654    24A     -0.760592
      25A     -0.738419    26A     -0.738357    27A     -0.706231
      28A     -0.706168    29A     -0.647705    30A     -0.647642
      31A     -0.580728    32A     -0.580666    33A     -0.574386
      34A     -0.574323    35A     -0.497129    36A     -0.497066
      37A     -0.434304    38A     -0.434241    39A     -0.415872
      40A     -0.415810    41A     -0.359941    42A     -0.359878

    Virtual:

      43A      0.034476    44A      0.034538    45A      0.040713
      46A      0.040773    47A      0.048365    48A      0.048425
      49A      0.058569    50A      0.058627    51A      0.067097
      52A      0.067160    53A      0.099402    54A      0.099465
      55A      0.100928    56A      0.100990    57A      0.114187
      58A      0.114251    59A      0.114937    60A      0.115002
      61A      0.123757    62A      0.123816    63A      0.125309
      64A      0.125371    65A      0.128639    66A      0.128699
      67A      0.132870    68A      0.132937    69A      0.158172
      70A      0.158240    71A      0.161063    72A      0.161127
      73A      0.161306    74A      0.161365    75A      0.163895
      76A      0.163956    77A      0.175157    78A      0.175217
      79A      0.186902    80A      0.186965    81A      0.203891
      82A      0.203956    83A      0.212525    84A      0.212588
      85A      0.250503    86A      0.250567    87A      0.267741
      88A      0.267803    89A      0.278040    90A      0.278103
      91A      0.287798    92A      0.287861    93A      0.293189
      94A      0.293250    95A      0.295733    96A      0.295793
      97A      0.314813    98A      0.314874    99A      0.320440
     100A      0.320504   101A      0.355410   102A      0.355470
     103A      0.357891   104A      0.357953   105A      0.364644
     106A      0.364706   107A      0.382564   108A      0.382626
     109A      0.398872   110A      0.398934   111A      0.409876
     112A      0.409938   113A      0.425433   114A      0.425494
     115A      0.433906   116A      0.433969   117A      0.437188
     118A      0.437253   119A      0.452074   120A      0.452135
     121A      0.471467   122A      0.471528   123A      0.492122
     124A      0.492184   125A      0.504842   126A      0.504905
     127A      0.514897   128A      0.514961   129A      0.524529
     130A      0.524591   131A      0.528652   132A      0.528715
     133A      0.554560   134A      0.554622   135A      0.570517
     136A      0.570579   137A      0.587518   138A      0.587580
     139A      0.591490   140A      0.591553   141A      0.593782
     142A      0.593845   143A      0.608911   144A      0.608972
     145A      0.643500   146A      0.643562   147A      0.644302
     148A      0.644363   149A      0.685119   150A      0.685182
     151A      0.687741   152A      0.687804   153A      0.689913
     154A      0.689975   155A      0.690325   156A      0.690387
     157A      0.694809   158A      0.694871   159A      0.703811
     160A      0.703872   161A      0.746538   162A      0.746600
     163A      0.754799   164A      0.754862   165A      0.766949
     166A      0.767011   167A      0.781390   168A      0.781453
     169A      0.799796   170A      0.799858   171A      0.802693
     172A      0.802755   173A      0.819000   174A      0.819063
     175A      0.831055   176A      0.831117   177A      0.847496
     178A      0.847558   179A      0.880527   180A      0.880589
     181A      0.886392   182A      0.886454   183A      0.894666
     184A      0.894729   185A      0.929253   186A      0.929317
     187A      0.939451   188A      0.939512   189A      0.949289
     190A      0.949351   191A      0.996635   192A      0.996697
     193A      0.998892   194A      0.998953   195A      1.012999
     196A      1.013062   197A      1.033353   198A      1.033415
     199A      1.051177   200A      1.051240   201A      1.089365
     202A      1.089427   203A      1.100428   204A      1.100491
     205A      1.122181   206A      1.122244   207A      1.124029
     208A      1.124090   209A      1.134345   210A      1.134407
     211A      1.158723   212A      1.158785   213A      1.173548
     214A      1.173610   215A      1.235400   216A      1.235462
     217A      1.238786   218A      1.238848   219A      1.309657
     220A      1.309719   221A      1.331132   222A      1.331194
     223A      1.414265   224A      1.414327   225A      1.451510
     226A      1.451572   227A      1.486121   228A      1.486183
     229A      1.488058   230A      1.488120   231A      1.499193
     232A      1.499256   233A      1.502829   234A      1.502892
     235A      1.518233   236A      1.518296   237A      1.572669
     238A      1.572732   239A      1.574175   240A      1.574238
     241A      1.587819   242A      1.587882   243A      1.635964
     244A      1.636027   245A      1.640487   246A      1.640549
     247A      1.648202   248A      1.648264   249A      1.676535
     250A      1.676597   251A      1.716975   252A      1.717038
     253A      1.746581   254A      1.746643   255A      1.755087
     256A      1.755149   257A      1.783745   258A      1.783808
     259A      1.815710   260A      1.815773   261A      1.893306
     262A      1.893368   263A      1.916120   264A      1.916182
     265A      1.964811   266A      1.964873   267A      1.987658
     268A      1.987720   269A      2.031185   270A      2.031247
     271A      2.091531   272A      2.091594   273A      2.101011
     274A      2.101073   275A      2.142936   276A      2.142998
     277A      2.163338   278A      2.163401   279A      2.190471
     280A      2.190533   281A      2.193284   282A      2.193346
     283A      2.200362   284A      2.200424   285A      2.202393
     286A      2.202455   287A      2.227609   288A      2.227672
     289A      2.312744   290A      2.312806   291A      2.355211
     292A      2.355273   293A      2.430940   294A      2.431002
     295A      2.438960   296A      2.439022   297A      2.519362
     298A      2.519424   299A      2.522377   300A      2.522440
     301A      2.584750   302A      2.584812   303A      2.606250
     304A      2.606312   305A      2.665207   306A      2.665269
     307A      2.675393   308A      2.675455   309A      2.686379
     310A      2.686441   311A      2.713969   312A      2.714031
     313A      2.718574   314A      2.718636   315A      2.843998
     316A      2.844060   317A      2.865744   318A      2.865806
     319A      2.939179   320A      2.939241   321A      3.001838
     322A      3.001900   323A      3.017855   324A      3.017917
     325A      3.032170   326A      3.032232   327A      3.094119
     328A      3.094182   329A      3.220299   330A      3.220362
     331A      3.255962   332A      3.256024   333A      3.284863
     334A      3.284926   335A      3.366123   336A      3.366185
     337A      3.413349   338A      3.413411   339A      3.514903
     340A      3.514965   341A      3.590637   342A      3.590700
     343A      3.627752   344A      3.627814   345A      3.977219
     346A      3.977281   347A      4.253468   348A      4.253530

    Final Occupation by Irrep:
              A
    DOCC [    42 ]

  @DF-RHF Final Energy:  -525.27988744153026

   => Energetics <=

    Nuclear Repulsion Energy =            477.6739092174985899
    One-Electron Energy =               -1656.0609157798739943
    Two-Electron Energy =                 653.1071191208452547
    Total Energy =                       -525.2798874415302635

Computation Completed


Properties will be evaluated at   0.000000,   0.000000,   0.000000 [a0]

Properties computed using the SCF density matrix

  Nuclear Dipole Moment: [e a0]
     X:  -259.9086      Y:  -149.8134      Z: -1297.5007

  Electronic Dipole Moment: [e a0]
     X:   259.9087      Y:   149.8128      Z:  1297.5010

  Dipole Moment: [e a0]
     X:     0.0001      Y:    -0.0005      Z:     0.0003     Total:     0.0007

  Dipole Moment: [D]
     X:     0.0003      Y:    -0.0014      Z:     0.0008     Total:     0.0017


*** tstop() called on atl1-1-01-013-7-l.pace.gatech.edu at Mon Nov 29 16:10:57 2021
Module time:
	user time   =      26.10 seconds =       0.43 minutes
	system time =       1.00 seconds =       0.02 minutes
	total time  =         15 seconds =       0.25 minutes
Total time:
	user time   =      26.10 seconds =       0.43 minutes
	system time =       1.00 seconds =       0.02 minutes
	total time  =         15 seconds =       0.25 minutes

  //>>>>>>>>>>>>>>>>>>>>>>>>>>>>>>>>>>>//
  //            Monomer A HF           //
  //<<<<<<<<<<<<<<<<<<<<<<<<<<<<<<<<<<<//


*** tstart() called on atl1-1-01-013-7-l.pace.gatech.edu
*** at Mon Nov 29 16:10:57 2021

   => Loading Basis Set <=

    Name: AUG-CC-PVDZ
    Role: ORBITAL
    Keyword: BASIS
    atoms 1-2, 11-12  entry N          line   218 file /storage/home/hhive1/csargent30/data/miniconda3/envs/psi4/share/psi4/basis/aug-cc-pvdz.gbs
    atoms 3-6, 13-16  entry H          line    40 file /storage/home/hhive1/csargent30/data/miniconda3/envs/psi4/share/psi4/basis/aug-cc-pvdz.gbs
    atoms 7-10, 17-20 entry C          line   182 file /storage/home/hhive1/csargent30/data/miniconda3/envs/psi4/share/psi4/basis/aug-cc-pvdz.gbs


         ---------------------------------------------------------
                                   SCF
               by Justin Turney, Rob Parrish, Andy Simmonett
                          and Daniel G. A. Smith
                              RHF Reference
                        2 Threads,   6675 MiB Core
         ---------------------------------------------------------

  ==> Geometry <==

    Molecular point group: c1
    Full point group: C1

    Geometry (in Bohr), charge = 0, multiplicity = 1:

       Center              X                  Y                   Z               Mass
    ------------   -----------------  -----------------  -----------------  -----------------
         N           -1.330847580000     0.980326580000     0.426270370000    14.003074004430
         N            3.953773330000     0.980326580000     0.426270370000    14.003074004430
         H            3.567136740000     4.352185690000    -0.942309730000     1.007825032230
         H           -0.944210980000     4.352185690000    -0.942309730000     1.007825032230
         H           -0.944210980000    -2.391532530000     1.794850470000     1.007825032230
         H            3.567136740000    -2.391532530000     1.794850470000     1.007825032230
         C            2.622925760000     2.940979740000    -0.426270370000    12.000000000000
         C            0.000000000000     2.940979740000    -0.426270370000    12.000000000000
         C            0.000000000000    -0.980326580000     1.278811120000    12.000000000000
         C            2.622925760000    -0.980326580000     1.278811120000    12.000000000000
      Gh(N)         -10.142073580000    -4.547311310000   -31.319144320000    14.003074004430
      Gh(N)          -4.857452670000    -4.547311310000   -31.319144320000    14.003074004430
      Gh(H)          -9.755436980000    -7.919170420000   -32.687724420000     1.007825032230
      Gh(H)          -9.755436980000    -1.175452200000   -29.950564220000     1.007825032230
      Gh(H)          -5.244089270000    -7.919170420000   -32.687724420000     1.007825032230
      Gh(H)          -5.244089270000    -1.175452200000   -29.950564220000     1.007825032230
      Gh(C)          -8.811226010000    -6.507964470000   -32.171685070000    12.000000000000
      Gh(C)          -8.811226010000    -2.586658150000   -30.466603570000    12.000000000000
      Gh(C)          -6.188300250000    -6.507964470000   -32.171685070000    12.000000000000
      Gh(C)          -6.188300250000    -2.586658150000   -30.466603570000    12.000000000000

  Running in c1 symmetry.

  Rotational constants: A =      0.05042  B =      0.00071  C =      0.00070 [cm^-1]
  Rotational constants: A =   1511.46489  B =     21.14911  C =     21.09698 [MHz]
  Nuclear repulsion =  212.551731110485349

  Charge       = 0
  Multiplicity = 1
  Electrons    = 42
  Nalpha       = 21
  Nbeta        = 21

  ==> Algorithm <==

  SCF Algorithm Type is DF.
  DIIS enabled.
  MOM disabled.
  Fractional occupation disabled.
  Guess Type is SAD.
  Energy threshold   = 1.00e-10
  Density threshold  = 1.00e-10
  Integral threshold = 1.00e-12

  ==> Primary Basis <==

  Basis Set: AUG-CC-PVDZ
    Blend: AUG-CC-PVDZ
    Number of shells: 148
    Number of basis functions: 348
    Number of Cartesian functions: 372
    Spherical Harmonics?: true
    Max angular momentum: 2

   => Loading Basis Set <=

    Name: (AUG-CC-PVDZ AUX)
    Role: JKFIT
    Keyword: DF_BASIS_SCF
    atoms 1-2, 11-12  entry N          line   212 file /storage/home/hhive1/csargent30/data/miniconda3/envs/psi4/share/psi4/basis/aug-cc-pvdz-jkfit.gbs
    atoms 3-6, 13-16  entry H          line    70 file /storage/home/hhive1/csargent30/data/miniconda3/envs/psi4/share/psi4/basis/aug-cc-pvdz-jkfit.gbs
    atoms 7-10, 17-20 entry C          line   154 file /storage/home/hhive1/csargent30/data/miniconda3/envs/psi4/share/psi4/basis/aug-cc-pvdz-jkfit.gbs

  ==> Integral Setup <==

  ==> DiskDFJK: Density-Fitted J/K Matrices <==

    J tasked:                  Yes
    K tasked:                  Yes
    wK tasked:                  No
    OpenMP threads:              2
    Integrals threads:           2
    Memory [MiB]:             5006
    Algorithm:                Core
    Integral Cache:           LOAD
    Schwarz Cutoff:          1E-12
    Fitting Condition:       1E-10

   => Auxiliary Basis Set <=

  Basis Set: (AUG-CC-PVDZ AUX)
    Blend: AUG-CC-PVDZ-JKFIT
    Number of shells: 432
    Number of basis functions: 1288
    Number of Cartesian functions: 1492
    Spherical Harmonics?: true
    Max angular momentum: 3

  Minimum eigenvalue in the overlap matrix is 9.4895339400E-06.
  Reciprocal condition number of the overlap matrix is 7.4015252942E-07.
    Using symmetric orthogonalization.

  ==> Pre-Iterations <==

  SCF Guess: Superposition of Atomic Densities via on-the-fly atomic UHF (no occupation information).

   -------------------------
    Irrep   Nso     Nmo
   -------------------------
     A        348     348
   -------------------------
    Total     348     348
   -------------------------

  ==> Iterations <==

                           Total Energy        Delta E     RMS |[F,P]|

   @DF-RHF iter SAD:  -262.32523125947154   -2.62325e+02   0.00000e+00
   @DF-RHF iter   1:  -262.53940798237619   -2.14177e-01   1.11985e-03 DIIS
   @DF-RHF iter   2:  -262.62878837535050   -8.93804e-02   4.10664e-04 DIIS
   @DF-RHF iter   3:  -262.63862291996475   -9.83454e-03   1.28248e-04 DIIS
   @DF-RHF iter   4:  -262.63984767323421   -1.22475e-03   3.77599e-05 DIIS
   @DF-RHF iter   5:  -262.63993727369615   -8.96005e-05   7.55558e-06 DIIS
   @DF-RHF iter   6:  -262.63994382395623   -6.55026e-06   2.45264e-06 DIIS
   @DF-RHF iter   7:  -262.63994477632968   -9.52373e-07   6.40130e-07 DIIS
   @DF-RHF iter   8:  -262.63994485021726   -7.38876e-08   9.91693e-08 DIIS
   @DF-RHF iter   9:  -262.63994485220286   -1.98560e-09   1.88228e-08 DIIS
   @DF-RHF iter  10:  -262.63994485227386   -7.09974e-11   3.19151e-09 DIIS
   @DF-RHF iter  11:  -262.63994485227551   -1.64846e-12   5.22318e-10 DIIS
   @DF-RHF iter  12:  -262.63994485227602   -5.11591e-13   9.54331e-11 DIIS
  Energy and wave function converged.


  ==> Post-Iterations <==

    Orbital Energies [Eh]
    ---------------------

    Doubly Occupied:

       1A    -15.598072     2A    -15.598053     3A    -11.274239
       4A    -11.274194     5A    -11.272975     6A    -11.272969
       7A     -1.313347     8A     -1.224176     9A     -1.076803
      10A     -0.922662    11A     -0.919282    12A     -0.760637
      13A     -0.738402    14A     -0.706214    15A     -0.647687
      16A     -0.580711    17A     -0.574369    18A     -0.497113
      19A     -0.434288    20A     -0.415855    21A     -0.359924

    Virtual:

      22A      0.022404    23A      0.034497    24A      0.039469
      25A      0.040738    26A      0.041148    27A      0.048383
      28A      0.058591    29A      0.058812    30A      0.067113
      31A      0.079657    32A      0.085011    33A      0.099420
      34A      0.100948    35A      0.103957    36A      0.108488
      37A      0.108823    38A      0.114201    39A      0.114951
      40A      0.122470    41A      0.123776    42A      0.125322
      43A      0.125551    44A      0.128661    45A      0.130920
      46A      0.132889    47A      0.134112    48A      0.152067
      49A      0.152996    50A      0.158199    51A      0.159316
      52A      0.161084    53A      0.161326    54A      0.163914
      55A      0.175179    56A      0.176707    57A      0.186918
      58A      0.197772    59A      0.203872    60A      0.203909
      61A      0.206637    62A      0.212538    63A      0.222349
      64A      0.233581    65A      0.239406    66A      0.250517
      67A      0.255193    68A      0.267756    69A      0.270747
      70A      0.278056    71A      0.287812    72A      0.293207
      73A      0.295749    74A      0.302289    75A      0.314832
      76A      0.320457    77A      0.320606    78A      0.328125
      79A      0.331272    80A      0.344088    81A      0.355428
      82A      0.357908    83A      0.364661    84A      0.380466
      85A      0.382583    86A      0.385605    87A      0.398891
      88A      0.401241    89A      0.409895    90A      0.419238
      91A      0.424919    92A      0.425453    93A      0.433925
      94A      0.437212    95A      0.441901    96A      0.452092
      97A      0.460625    98A      0.461072    99A      0.471483
     100A      0.476054   101A      0.478786   102A      0.492140
     103A      0.504862   104A      0.507787   105A      0.514914
     106A      0.523732   107A      0.524547   108A      0.528668
     109A      0.535699   110A      0.554577   111A      0.557812
     112A      0.561481   113A      0.564462   114A      0.570535
     115A      0.581870   116A      0.587535   117A      0.591506
     118A      0.593799   119A      0.595975   120A      0.608929
     121A      0.615111   122A      0.620129   123A      0.636335
     124A      0.643517   125A      0.644321   126A      0.649323
     127A      0.651459   128A      0.679380   129A      0.685136
     130A      0.685282   131A      0.687758   132A      0.689932
     133A      0.690342   134A      0.694828   135A      0.703830
     136A      0.719854   137A      0.728362   138A      0.746558
     139A      0.746757   140A      0.754817   141A      0.766965
     142A      0.775651   143A      0.781406   144A      0.793599
     145A      0.799815   146A      0.802710   147A      0.811062
     148A      0.811945   149A      0.819016   150A      0.824720
     151A      0.831071   152A      0.847513   153A      0.848031
     154A      0.849152   155A      0.868574   156A      0.880544
     157A      0.886410   158A      0.888118   159A      0.894682
     160A      0.906073   161A      0.929080   162A      0.929272
     163A      0.939466   164A      0.947660   165A      0.949307
     166A      0.970749   167A      0.976904   168A      0.986605
     169A      0.996652   170A      0.998908   171A      1.013015
     172A      1.032386   173A      1.033370   174A      1.046898
     175A      1.051194   176A      1.076232   177A      1.089381
     178A      1.090247   179A      1.100445   180A      1.122199
     181A      1.124044   182A      1.130630   183A      1.134362
     184A      1.140234   185A      1.158740   186A      1.168558
     187A      1.170646   188A      1.173564   189A      1.192176
     190A      1.193210   191A      1.200443   192A      1.222284
     193A      1.235416   194A      1.238804   195A      1.250998
     196A      1.307526   197A      1.309674   198A      1.318232
     199A      1.326381   200A      1.329581   201A      1.331148
     202A      1.346777   203A      1.389181   204A      1.414282
     205A      1.448358   206A      1.451526   207A      1.455429
     208A      1.479102   209A      1.486137   210A      1.487174
     211A      1.488075   212A      1.499211   213A      1.502846
     214A      1.518252   215A      1.572686   216A      1.574192
     217A      1.587836   218A      1.635982   219A      1.640505
     220A      1.648219   221A      1.659210   222A      1.676552
     223A      1.698037   224A      1.716991   225A      1.746597
     226A      1.755104   227A      1.783762   228A      1.815727
     229A      1.893323   230A      1.916137   231A      1.964829
     232A      1.987674   233A      2.031202   234A      2.070197
     235A      2.091548   236A      2.101028   237A      2.102736
     238A      2.119414   239A      2.142953   240A      2.156646
     241A      2.159159   242A      2.163355   243A      2.190488
     244A      2.193301   245A      2.194831   246A      2.200380
     247A      2.202410   248A      2.227626   249A      2.234746
     250A      2.241174   251A      2.249630   252A      2.309985
     253A      2.312761   254A      2.319519   255A      2.355229
     256A      2.384776   257A      2.419180   258A      2.430957
     259A      2.435383   260A      2.438136   261A      2.438977
     262A      2.472647   263A      2.486694   264A      2.498290
     265A      2.519379   266A      2.522395   267A      2.525038
     268A      2.545966   269A      2.568297   270A      2.584766
     271A      2.592343   272A      2.606266   273A      2.625942
     274A      2.665224   275A      2.675409   276A      2.686395
     277A      2.713985   278A      2.716868   279A      2.718591
     280A      2.726623   281A      2.767906   282A      2.844014
     283A      2.865761   284A      2.904007   285A      2.939196
     286A      2.947197   287A      2.955723   288A      2.973313
     289A      3.001855   290A      3.017872   291A      3.032186
     292A      3.058302   293A      3.065200   294A      3.094137
     295A      3.113839   296A      3.220316   297A      3.245701
     298A      3.255980   299A      3.284880   300A      3.289654
     301A      3.321933   302A      3.337714   303A      3.340458
     304A      3.348631   305A      3.351355   306A      3.366140
     307A      3.412603   308A      3.413367   309A      3.470757
     310A      3.501958   311A      3.514920   312A      3.521368
     313A      3.590655   314A      3.604442   315A      3.605649
     316A      3.627769   317A      3.700489   318A      3.818928
     319A      3.830692   320A      3.940974   321A      3.969100
     322A      3.977236   323A      4.011406   324A      4.194762
     325A      4.242254   326A      4.253485   327A      4.441992
     328A      4.546834   329A      4.579282   330A      4.867645
     331A      4.976147   332A      5.057857   333A      5.261715
     334A      5.316544   335A      5.630202   336A      5.691328
     337A      5.827153   338A      5.952636   339A      6.283832
     340A      6.306893   341A      6.453769   342A      6.631204
     343A     18.125721   344A     18.207983   345A     19.017579
     346A     19.343004   347A     25.287066   348A     25.374786

    Final Occupation by Irrep:
              A
    DOCC [    21 ]

  @DF-RHF Final Energy:  -262.63994485227602

   => Energetics <=

    Nuclear Repulsion Energy =            212.5517311104853491
    One-Electron Energy =                -775.4594096271496255
    Two-Electron Energy =                 300.2677336643882882
    Total Energy =                       -262.6399448522760167

Computation Completed


Properties will be evaluated at   0.000000,   0.000000,   0.000000 [a0]

Properties computed using the SCF density matrix

  Nuclear Dipole Moment: [e a0]
     X:    55.0814      Y:    41.1737      Z:    17.9034

  Electronic Dipole Moment: [e a0]
     X:   -55.0814      Y:   -41.1737      Z:   -17.9034

  Dipole Moment: [e a0]
     X:    -0.0000      Y:    -0.0000      Z:     0.0000     Total:     0.0000

  Dipole Moment: [D]
     X:    -0.0000      Y:    -0.0000      Z:     0.0000     Total:     0.0000


*** tstop() called on atl1-1-01-013-7-l.pace.gatech.edu at Mon Nov 29 16:11:06 2021
Module time:
	user time   =      16.01 seconds =       0.27 minutes
	system time =       0.51 seconds =       0.01 minutes
	total time  =          9 seconds =       0.15 minutes
Total time:
	user time   =      42.12 seconds =       0.70 minutes
	system time =       1.51 seconds =       0.03 minutes
	total time  =         24 seconds =       0.40 minutes

  //>>>>>>>>>>>>>>>>>>>>>>>>>>>>>>>>>>>//
  //            Monomer B HF           //
  //<<<<<<<<<<<<<<<<<<<<<<<<<<<<<<<<<<<//


*** tstart() called on atl1-1-01-013-7-l.pace.gatech.edu
*** at Mon Nov 29 16:11:06 2021

   => Loading Basis Set <=

    Name: AUG-CC-PVDZ
    Role: ORBITAL
    Keyword: BASIS
    atoms 1-2, 11-12  entry N          line   218 file /storage/home/hhive1/csargent30/data/miniconda3/envs/psi4/share/psi4/basis/aug-cc-pvdz.gbs
    atoms 3-6, 13-16  entry H          line    40 file /storage/home/hhive1/csargent30/data/miniconda3/envs/psi4/share/psi4/basis/aug-cc-pvdz.gbs
    atoms 7-10, 17-20 entry C          line   182 file /storage/home/hhive1/csargent30/data/miniconda3/envs/psi4/share/psi4/basis/aug-cc-pvdz.gbs


         ---------------------------------------------------------
                                   SCF
               by Justin Turney, Rob Parrish, Andy Simmonett
                          and Daniel G. A. Smith
                              RHF Reference
                        2 Threads,   6675 MiB Core
         ---------------------------------------------------------

  ==> Geometry <==

    Molecular point group: c1
    Full point group: C1

    Geometry (in Bohr), charge = 0, multiplicity = 1:

       Center              X                  Y                   Z               Mass
    ------------   -----------------  -----------------  -----------------  -----------------
      Gh(N)          -1.330847580000     0.980326580000     0.426270370000    14.003074004430
      Gh(N)           3.953773330000     0.980326580000     0.426270370000    14.003074004430
      Gh(H)           3.567136740000     4.352185690000    -0.942309730000     1.007825032230
      Gh(H)          -0.944210980000     4.352185690000    -0.942309730000     1.007825032230
      Gh(H)          -0.944210980000    -2.391532530000     1.794850470000     1.007825032230
      Gh(H)           3.567136740000    -2.391532530000     1.794850470000     1.007825032230
      Gh(C)           2.622925760000     2.940979740000    -0.426270370000    12.000000000000
      Gh(C)           0.000000000000     2.940979740000    -0.426270370000    12.000000000000
      Gh(C)           0.000000000000    -0.980326580000     1.278811120000    12.000000000000
      Gh(C)           2.622925760000    -0.980326580000     1.278811120000    12.000000000000
         N          -10.142073580000    -4.547311310000   -31.319144320000    14.003074004430
         N           -4.857452670000    -4.547311310000   -31.319144320000    14.003074004430
         H           -9.755436980000    -7.919170420000   -32.687724420000     1.007825032230
         H           -9.755436980000    -1.175452200000   -29.950564220000     1.007825032230
         H           -5.244089270000    -7.919170420000   -32.687724420000     1.007825032230
         H           -5.244089270000    -1.175452200000   -29.950564220000     1.007825032230
         C           -8.811226010000    -6.507964470000   -32.171685070000    12.000000000000
         C           -8.811226010000    -2.586658150000   -30.466603570000    12.000000000000
         C           -6.188300250000    -6.507964470000   -32.171685070000    12.000000000000
         C           -6.188300250000    -2.586658150000   -30.466603570000    12.000000000000

  Running in c1 symmetry.

  Rotational constants: A =      0.05042  B =      0.00071  C =      0.00070 [cm^-1]
  Rotational constants: A =   1511.46489  B =     21.14911  C =     21.09698 [MHz]
  Nuclear repulsion =  212.551731074928114

  Charge       = 0
  Multiplicity = 1
  Electrons    = 42
  Nalpha       = 21
  Nbeta        = 21

  ==> Algorithm <==

  SCF Algorithm Type is DF.
  DIIS enabled.
  MOM disabled.
  Fractional occupation disabled.
  Guess Type is SAD.
  Energy threshold   = 1.00e-10
  Density threshold  = 1.00e-10
  Integral threshold = 1.00e-12

  ==> Primary Basis <==

  Basis Set: AUG-CC-PVDZ
    Blend: AUG-CC-PVDZ
    Number of shells: 148
    Number of basis functions: 348
    Number of Cartesian functions: 372
    Spherical Harmonics?: true
    Max angular momentum: 2

   => Loading Basis Set <=

    Name: (AUG-CC-PVDZ AUX)
    Role: JKFIT
    Keyword: DF_BASIS_SCF
    atoms 1-2, 11-12  entry N          line   212 file /storage/home/hhive1/csargent30/data/miniconda3/envs/psi4/share/psi4/basis/aug-cc-pvdz-jkfit.gbs
    atoms 3-6, 13-16  entry H          line    70 file /storage/home/hhive1/csargent30/data/miniconda3/envs/psi4/share/psi4/basis/aug-cc-pvdz-jkfit.gbs
    atoms 7-10, 17-20 entry C          line   154 file /storage/home/hhive1/csargent30/data/miniconda3/envs/psi4/share/psi4/basis/aug-cc-pvdz-jkfit.gbs

  ==> Integral Setup <==

  ==> DiskDFJK: Density-Fitted J/K Matrices <==

    J tasked:                  Yes
    K tasked:                  Yes
    wK tasked:                  No
    OpenMP threads:              2
    Integrals threads:           2
    Memory [MiB]:             5006
    Algorithm:                Core
    Integral Cache:           LOAD
    Schwarz Cutoff:          1E-12
    Fitting Condition:       1E-10

   => Auxiliary Basis Set <=

  Basis Set: (AUG-CC-PVDZ AUX)
    Blend: AUG-CC-PVDZ-JKFIT
    Number of shells: 432
    Number of basis functions: 1288
    Number of Cartesian functions: 1492
    Spherical Harmonics?: true
    Max angular momentum: 3

  Minimum eigenvalue in the overlap matrix is 9.4895339400E-06.
  Reciprocal condition number of the overlap matrix is 7.4015252942E-07.
    Using symmetric orthogonalization.

  ==> Pre-Iterations <==

  SCF Guess: Superposition of Atomic Densities via on-the-fly atomic UHF (no occupation information).

   -------------------------
    Irrep   Nso     Nmo
   -------------------------
     A        348     348
   -------------------------
    Total     348     348
   -------------------------

  ==> Iterations <==

                           Total Energy        Delta E     RMS |[F,P]|

   @DF-RHF iter SAD:  -262.32523125174515   -2.62325e+02   0.00000e+00
   @DF-RHF iter   1:  -262.53940797701898   -2.14177e-01   1.11985e-03 DIIS
   @DF-RHF iter   2:  -262.62878836990160   -8.93804e-02   4.10664e-04 DIIS
   @DF-RHF iter   3:  -262.63862291440705   -9.83454e-03   1.28248e-04 DIIS
   @DF-RHF iter   4:  -262.63984766766902   -1.22475e-03   3.77599e-05 DIIS
   @DF-RHF iter   5:  -262.63993726813072   -8.96005e-05   7.55558e-06 DIIS
   @DF-RHF iter   6:  -262.63994381839080   -6.55026e-06   2.45264e-06 DIIS
   @DF-RHF iter   7:  -262.63994477076437   -9.52374e-07   6.40130e-07 DIIS
   @DF-RHF iter   8:  -262.63994484465206   -7.38877e-08   9.91693e-08 DIIS
   @DF-RHF iter   9:  -262.63994484663834   -1.98628e-09   1.88228e-08 DIIS
   @DF-RHF iter  10:  -262.63994484670854   -7.02016e-11   3.19151e-09 DIIS
   @DF-RHF iter  11:  -262.63994484671099   -2.44427e-12   5.22317e-10 DIIS
   @DF-RHF iter  12:  -262.63994484671122   -2.27374e-13   9.54328e-11 DIIS
  Energy and wave function converged.


  ==> Post-Iterations <==

    Orbital Energies [Eh]
    ---------------------

    Doubly Occupied:

       1A    -15.598072     2A    -15.598053     3A    -11.274239
       4A    -11.274194     5A    -11.272975     6A    -11.272969
       7A     -1.313347     8A     -1.224176     9A     -1.076803
      10A     -0.922662    11A     -0.919282    12A     -0.760637
      13A     -0.738402    14A     -0.706214    15A     -0.647687
      16A     -0.580711    17A     -0.574369    18A     -0.497113
      19A     -0.434288    20A     -0.415855    21A     -0.359924

    Virtual:

      22A      0.022342    23A      0.034497    24A      0.039409
      25A      0.040738    26A      0.041089    27A      0.048383
      28A      0.058591    29A      0.058754    30A      0.067113
      31A      0.079593    32A      0.084950    33A      0.099420
      34A      0.100948    35A      0.103898    36A      0.108424
      37A      0.108762    38A      0.114201    39A      0.114951
      40A      0.122406    41A      0.123776    42A      0.125322
      43A      0.125490    44A      0.128661    45A      0.130856
      46A      0.132889    47A      0.134052    48A      0.152008
      49A      0.152936    50A      0.158199    51A      0.159252
      52A      0.161084    53A      0.161326    54A      0.163914
      55A      0.175179    56A      0.176647    57A      0.186918
      58A      0.197710    59A      0.203813    60A      0.203908
      61A      0.206569    62A      0.212538    63A      0.222287
      64A      0.233521    65A      0.239346    66A      0.250517
      67A      0.255131    68A      0.267756    69A      0.270684
      70A      0.278056    71A      0.287812    72A      0.293207
      73A      0.295749    74A      0.302226    75A      0.314832
      76A      0.320457    77A      0.320545    78A      0.328064
      79A      0.331210    80A      0.344027    81A      0.355428
      82A      0.357908    83A      0.364661    84A      0.380404
      85A      0.382583    86A      0.385543    87A      0.398891
      88A      0.401179    89A      0.409895    90A      0.419177
      91A      0.424856    92A      0.425453    93A      0.433925
      94A      0.437212    95A      0.441839    96A      0.452092
      97A      0.460563    98A      0.461009    99A      0.471483
     100A      0.475992   101A      0.478724   102A      0.492140
     103A      0.504862   104A      0.507726   105A      0.514914
     106A      0.523671   107A      0.524547   108A      0.528668
     109A      0.535637   110A      0.554577   111A      0.557750
     112A      0.561419   113A      0.564400   114A      0.570535
     115A      0.581809   116A      0.587535   117A      0.591506
     118A      0.593799   119A      0.595913   120A      0.608929
     121A      0.615049   122A      0.620068   123A      0.636272
     124A      0.643517   125A      0.644321   126A      0.649260
     127A      0.651396   128A      0.679318   129A      0.685136
     130A      0.685221   131A      0.687758   132A      0.689932
     133A      0.690342   134A      0.694828   135A      0.703829
     136A      0.719793   137A      0.728299   138A      0.746558
     139A      0.746695   140A      0.754817   141A      0.766965
     142A      0.775588   143A      0.781406   144A      0.793537
     145A      0.799815   146A      0.802710   147A      0.811000
     148A      0.811883   149A      0.819016   150A      0.824658
     151A      0.831071   152A      0.847513   153A      0.847970
     154A      0.849091   155A      0.868511   156A      0.880544
     157A      0.886410   158A      0.888054   159A      0.894682
     160A      0.906010   161A      0.929017   162A      0.929272
     163A      0.939466   164A      0.947598   165A      0.949307
     166A      0.970686   167A      0.976842   168A      0.986544
     169A      0.996652   170A      0.998908   171A      1.013015
     172A      1.032324   173A      1.033370   174A      1.046836
     175A      1.051194   176A      1.076170   177A      1.089381
     178A      1.090184   179A      1.100445   180A      1.122199
     181A      1.124044   182A      1.130569   183A      1.134362
     184A      1.140172   185A      1.158740   186A      1.168495
     187A      1.170582   188A      1.173564   189A      1.192115
     190A      1.193148   191A      1.200382   192A      1.222222
     193A      1.235416   194A      1.238804   195A      1.250935
     196A      1.307465   197A      1.309674   198A      1.318170
     199A      1.326320   200A      1.329519   201A      1.331148
     202A      1.346716   203A      1.389119   204A      1.414282
     205A      1.448296   206A      1.451526   207A      1.455367
     208A      1.479040   209A      1.486137   210A      1.487112
     211A      1.488075   212A      1.499211   213A      1.502846
     214A      1.518252   215A      1.572686   216A      1.574192
     217A      1.587836   218A      1.635982   219A      1.640505
     220A      1.648219   221A      1.659148   222A      1.676552
     223A      1.697974   224A      1.716991   225A      1.746597
     226A      1.755104   227A      1.783762   228A      1.815727
     229A      1.893323   230A      1.916137   231A      1.964829
     232A      1.987674   233A      2.031202   234A      2.070135
     235A      2.091548   236A      2.101028   237A      2.102673
     238A      2.119352   239A      2.142953   240A      2.156584
     241A      2.159098   242A      2.163355   243A      2.190488
     244A      2.193301   245A      2.194768   246A      2.200380
     247A      2.202410   248A      2.227626   249A      2.234684
     250A      2.241111   251A      2.249568   252A      2.309922
     253A      2.312761   254A      2.319456   255A      2.355229
     256A      2.384713   257A      2.419118   258A      2.430957
     259A      2.435321   260A      2.438074   261A      2.438977
     262A      2.472585   263A      2.486632   264A      2.498228
     265A      2.519379   266A      2.522395   267A      2.524976
     268A      2.545904   269A      2.568235   270A      2.584766
     271A      2.592280   272A      2.606266   273A      2.625881
     274A      2.665224   275A      2.675409   276A      2.686395
     277A      2.713985   278A      2.716806   279A      2.718591
     280A      2.726561   281A      2.767844   282A      2.844014
     283A      2.865761   284A      2.903945   285A      2.939196
     286A      2.947136   287A      2.955661   288A      2.973251
     289A      3.001855   290A      3.017872   291A      3.032186
     292A      3.058240   293A      3.065138   294A      3.094137
     295A      3.113777   296A      3.220316   297A      3.245638
     298A      3.255980   299A      3.284880   300A      3.289592
     301A      3.321871   302A      3.337652   303A      3.340396
     304A      3.348569   305A      3.351293   306A      3.366140
     307A      3.412540   308A      3.413367   309A      3.470695
     310A      3.501896   311A      3.514920   312A      3.521306
     313A      3.590655   314A      3.604380   315A      3.605587
     316A      3.627769   317A      3.700427   318A      3.818866
     319A      3.830630   320A      3.940911   321A      3.969037
     322A      3.977236   323A      4.011344   324A      4.194700
     325A      4.242192   326A      4.253485   327A      4.441930
     328A      4.546771   329A      4.579220   330A      4.867583
     331A      4.976085   332A      5.057795   333A      5.261653
     334A      5.316481   335A      5.630140   336A      5.691266
     337A      5.827090   338A      5.952574   339A      6.283770
     340A      6.306831   341A      6.453707   342A      6.631141
     343A     18.125659   344A     18.207921   345A     19.017516
     346A     19.342941   347A     25.287004   348A     25.374724

    Final Occupation by Irrep:
              A
    DOCC [    21 ]

  @DF-RHF Final Energy:  -262.63994484671122

   => Energetics <=

    Nuclear Repulsion Energy =            212.5517310749281137
    One-Electron Energy =                -775.4594095436601719
    Two-Electron Energy =                 300.2677336220207849
    Total Energy =                       -262.6399448467112165

Computation Completed


Properties will be evaluated at   0.000000,   0.000000,   0.000000 [a0]

Properties computed using the SCF density matrix

  Nuclear Dipole Moment: [e a0]
     X:  -314.9901      Y:  -190.9871      Z: -1315.4041

  Electronic Dipole Moment: [e a0]
     X:   314.9901      Y:   190.9871      Z:  1315.4041

  Dipole Moment: [e a0]
     X:     0.0000      Y:    -0.0000      Z:    -0.0000     Total:     0.0000

  Dipole Moment: [D]
     X:     0.0000      Y:    -0.0000      Z:    -0.0000     Total:     0.0000


*** tstop() called on atl1-1-01-013-7-l.pace.gatech.edu at Mon Nov 29 16:11:14 2021
Module time:
	user time   =      15.99 seconds =       0.27 minutes
	system time =       0.47 seconds =       0.01 minutes
	total time  =          8 seconds =       0.13 minutes
Total time:
	user time   =      58.12 seconds =       0.97 minutes
	system time =       1.98 seconds =       0.03 minutes
	total time  =         32 seconds =       0.53 minutes
  Constructing Basis Sets for SAPT...

   => Loading Basis Set <=

    Name: (AUG-CC-PVDZ AUX)
    Role: RIFIT
    Keyword: DF_BASIS_SAPT
    atoms 1-2, 11-12  entry N          line   158 file /storage/home/hhive1/csargent30/data/miniconda3/envs/psi4/share/psi4/basis/aug-cc-pvdz-ri.gbs
    atoms 3-6, 13-16  entry H          line    30 file /storage/home/hhive1/csargent30/data/miniconda3/envs/psi4/share/psi4/basis/aug-cc-pvdz-ri.gbs
    atoms 7-10, 17-20 entry C          line   112 file /storage/home/hhive1/csargent30/data/miniconda3/envs/psi4/share/psi4/basis/aug-cc-pvdz-ri.gbs


  //>>>>>>>>>>>>>>>>>>>>>>>>>>>>>>>>>>>//
  //               SAPT0               //
  //<<<<<<<<<<<<<<<<<<<<<<<<<<<<<<<<<<<//


*** tstart() called on atl1-1-01-013-7-l.pace.gatech.edu
*** at Mon Nov 29 16:11:15 2021

        SAPT0
    Ed Hohenstein
     6 June 2009

      Orbital Information
  --------------------------
    NSO        =       348
    NMO        =       348
    NRI        =      1048
    NOCC A     =        21
    NOCC B     =        21
    FOCC A     =         6
    FOCC B     =         6
    NVIR A     =       327
    NVIR B     =       327

    Elst10,r            =     0.000002254281 [Eh]
    Exch10              =     0.000000000000 [Eh]
    Exch10 (S^2)        =     0.000000000000 [Eh]

    Iter     Energy [mEh]          dE [mEh]         Residual      Time [s]
       1      -0.00000229       0.000002293       0.017480996             1
       2      -0.00000205      -0.000000246       0.003680662             1
       3      -0.00000228       0.000000233       0.001367650             1
       4      -0.00000229       0.000000015       0.000815458             2
       5      -0.00000228      -0.000000009       0.000384159             2
       6      -0.00000228      -0.000000004       0.000117118             2
       7      -0.00000228       0.000000001       0.000042775             3
       8      -0.00000228       0.000000000       0.000010698             3
       9      -0.00000228      -0.000000000       0.000004021             4
      10      -0.00000228      -0.000000000       0.000001332             4
      11      -0.00000228       0.000000000       0.000000721             4

    CHF Iterations converged


    Iter     Energy [mEh]          dE [mEh]         Residual      Time [s]
       1      -0.00000072       0.000000724       0.008178520             1
       2      -0.00000064      -0.000000080       0.001748260             1
       3      -0.00000068       0.000000039       0.000924680             1
       4      -0.00000070       0.000000017       0.000182311             2
       5      -0.00000070      -0.000000002       0.000098146             2
       6      -0.00000070      -0.000000000       0.000051542             3
       7      -0.00000070       0.000000000       0.000014049             3
       8      -0.00000070       0.000000000       0.000004486             3
       9      -0.00000070      -0.000000000       0.000001532             4
      10      -0.00000070      -0.000000000       0.000000507             4

    CHF Iterations converged

    Ind20,r (A<-B)      =    -0.000000002282 [Eh]
    Ind20,r (B<-A)      =    -0.000000000698 [Eh]
    Ind20,r             =    -0.000000002980 [Eh]
    Exch-Ind20,r (A<-B) =     0.000000000000 [Eh]
    Exch-Ind20,r (B<-A) =     0.000000000000 [Eh]
    Exch-Ind20,r        =     0.000000000000 [Eh]
    Disp20              =    -0.000001060025 [Eh]
    Disp20 (SS)         =    -0.000000530012 [Eh]
    Disp20 (OS)         =    -0.000000530012 [Eh]
    Exch-Disp20         =     0.000000000000 [Eh]
    Exch-Disp20 (SS)    =     0.000000000000 [Eh]
    Exch-Disp20 (OS)    =     0.000000000000 [Eh]

    SAPT Results
  --------------------------------------------------------------------------------------------------------
    Electrostatics                  0.00225428 [mEh]       0.00141458 [kcal/mol]       0.00591861 [kJ/mol]
      Elst10,r                      0.00225428 [mEh]       0.00141458 [kcal/mol]       0.00591861 [kJ/mol]

    Exchange                        0.00000000 [mEh]       0.00000000 [kcal/mol]       0.00000000 [kJ/mol]
      Exch10                        0.00000000 [mEh]       0.00000000 [kcal/mol]       0.00000000 [kJ/mol]
      Exch10(S^2)                   0.00000000 [mEh]       0.00000000 [kcal/mol]       0.00000000 [kJ/mol]

    Induction                       0.00000318 [mEh]       0.00000199 [kcal/mol]       0.00000834 [kJ/mol]
      Ind20,r                      -0.00000298 [mEh]      -0.00000187 [kcal/mol]      -0.00000782 [kJ/mol]
      Exch-Ind20,r                  0.00000000 [mEh]       0.00000000 [kcal/mol]       0.00000000 [kJ/mol]
      delta HF,r (2)                0.00000616 [mEh]       0.00000386 [kcal/mol]       0.00001616 [kJ/mol]

    Dispersion                     -0.00106002 [mEh]      -0.00066518 [kcal/mol]      -0.00278309 [kJ/mol]
      Disp20                       -0.00106002 [mEh]      -0.00066518 [kcal/mol]      -0.00278309 [kJ/mol]
      Exch-Disp20                   0.00000000 [mEh]       0.00000000 [kcal/mol]       0.00000000 [kJ/mol]
      Disp20 (SS)                  -0.00053001 [mEh]      -0.00033259 [kcal/mol]      -0.00139155 [kJ/mol]
      Disp20 (OS)                  -0.00053001 [mEh]      -0.00033259 [kcal/mol]      -0.00139155 [kJ/mol]
      Exch-Disp20 (SS)              0.00000000 [mEh]       0.00000000 [kcal/mol]       0.00000000 [kJ/mol]
      Exch-Disp20 (OS)              0.00000000 [mEh]       0.00000000 [kcal/mol]       0.00000000 [kJ/mol]

  Total HF                          0.00225746 [mEh]       0.00141658 [kcal/mol]       0.00592695 [kJ/mol]
  Total SAPT0                       0.00119743 [mEh]       0.00075140 [kcal/mol]       0.00314386 [kJ/mol]

  Special recipe for scaled SAPT0 (see Manual):
    Electrostatics sSAPT0           0.00225428 [mEh]       0.00141458 [kcal/mol]       0.00591861 [kJ/mol]
    Exchange sSAPT0                 0.00000000 [mEh]       0.00000000 [kcal/mol]       0.00000000 [kJ/mol]
    Induction sSAPT0                0.00000318 [mEh]       0.00000199 [kcal/mol]       0.00000834 [kJ/mol]
    Dispersion sSAPT0              -0.00106002 [mEh]      -0.00066518 [kcal/mol]      -0.00278309 [kJ/mol]
  Total sSAPT0                      0.00119743 [mEh]       0.00075140 [kcal/mol]       0.00314386 [kJ/mol]
  --------------------------------------------------------------------------------------------------------

*** tstop() called on atl1-1-01-013-7-l.pace.gatech.edu at Mon Nov 29 16:11:40 2021
Module time:
	user time   =      38.04 seconds =       0.63 minutes
	system time =       8.73 seconds =       0.15 minutes
	total time  =         25 seconds =       0.42 minutes
Total time:
	user time   =      96.41 seconds =       1.61 minutes
	system time =      10.72 seconds =       0.18 minutes
	total time  =         58 seconds =       0.97 minutes


Warning! sapt0 does not have an associated derived wavefunction.The returned wavefunction is the dimer SCF wavefunction.


    Psi4 stopped on: Monday, 29 November 2021 04:11PM
    Psi4 wall time for execution: 0:00:57.59

*** Psi4 exiting successfully. Buy a developer a beer!
