
    -----------------------------------------------------------------------
          Psi4: An Open-Source Ab Initio Electronic Structure Package
                               Psi4 1.4.1 release

                         Git: Rev {HEAD} cd00f19 


    D. G. A. Smith, L. A. Burns, A. C. Simmonett, R. M. Parrish,
    M. C. Schieber, R. Galvelis, P. Kraus, H. Kruse, R. Di Remigio,
    A. Alenaizan, A. M. James, S. Lehtola, J. P. Misiewicz, M. Scheurer,
    R. A. Shaw, J. B. Schriber, Y. Xie, Z. L. Glick, D. A. Sirianni,
    J. S. O'Brien, J. M. Waldrop, A. Kumar, E. G. Hohenstein,
    B. P. Pritchard, B. R. Brooks, H. F. Schaefer III, A. Yu. Sokolov,
    K. Patkowski, A. E. DePrince III, U. Bozkaya, R. A. King,
    F. A. Evangelista, J. M. Turney, T. D. Crawford, C. D. Sherrill,
    J. Chem. Phys. 152(18) 184108 (2020). https://doi.org/10.1063/5.0006002

                            Additional Code Authors
    E. T. Seidl, C. L. Janssen, E. F. Valeev, M. L. Leininger,
    J. F. Gonthier, R. M. Richard, H. R. McAlexander, M. Saitow, X. Wang,
    P. Verma, and M. H. Lechner

             Previous Authors, Complete List of Code Contributors,
                       and Citations for Specific Modules
    https://github.com/psi4/psi4/blob/master/codemeta.json
    https://github.com/psi4/psi4/graphs/contributors
    http://psicode.org/psi4manual/master/introduction.html#citing-psifour

    -----------------------------------------------------------------------


    Psi4 started on: Monday, 29 November 2021 04:10PM

    Process ID: 397370
    Host:       atl1-1-01-013-9-r.pace.gatech.edu
    PSIDATADIR: /storage/home/hhive1/csargent30/data/miniconda3/envs/psi4/share/psi4
    Memory:     500.0 MiB
    Threads:    2
    
  ==> Input File <==

--------------------------------------------------------------------------
# PSI4 file produced by CrystaLattE

# Generated from:               pyrazine.xyz
# Psithon input for N-mer:      2mer-0+302
# Number of atoms per monomer:  [10, 10]
# Number of replicas:           4
# COM priority:                 1.827605004332e-05
# Minimum COM separations:      20.090 
# Separation priority:          2.761225504331e-05
# Minimum monomer separations:  17.508 
# Cutoff priority:              8.345822967748e-07
# Nuclear repulsion energy:     471.6452234402717

memory 7 GB

molecule Dimer_0_302 {
  N           -1.33084758       0.98032658       0.42627037 
  N            3.95377333       0.98032658       0.42627037 
  H            3.56713674       4.35218569      -0.94230973 
  H           -0.94421098       4.35218569      -0.94230973 
  H           -0.94421098      -2.39153253       1.79485047 
  H            3.56713674      -2.39153253       1.79485047 
  C            2.62292576       2.94097974      -0.42627037 
  C            0.00000000       2.94097974      -0.42627037 
  C            0.00000000      -0.98032658       1.27881112 
  C            2.62292576      -0.98032658       1.27881112 
--
  N          -36.57575160       0.98032658     -13.68280282 
  N          -31.29113069       0.98032658     -13.68280282 
  H          -31.67776728       4.35218569     -15.05138292 
  H          -36.18911500       4.35218569     -15.05138292 
  H          -36.18911500      -2.39153253     -12.31422272 
  H          -31.67776728      -2.39153253     -12.31422272 
  C          -32.62197826       2.94097974     -14.53534357 
  C          -35.24490402       2.94097974     -14.53534357 
  C          -35.24490402      -0.98032658     -12.83026208 
  C          -32.62197826      -0.98032658     -12.83026208 
units = au
no_com
no_reorient
}

set {
  e_convergence 10
  d_convergence 10
  scf_type df
  mp2_type df
  cc_type df
  freeze_core true
}

energy('sapt0/aug-cc-pvdz')

--------------------------------------------------------------------------

  Memory set to   6.519 GiB by Python driver.

Scratch directory: /tmp/

Scratch directory: /tmp/

  //>>>>>>>>>>>>>>>>>>>>>>>>>>>>>>>>>>>//
  //              Dimer HF             //
  //<<<<<<<<<<<<<<<<<<<<<<<<<<<<<<<<<<<//


*** tstart() called on atl1-1-01-013-9-r.pace.gatech.edu
*** at Mon Nov 29 16:10:45 2021

   => Loading Basis Set <=

    Name: AUG-CC-PVDZ
    Role: ORBITAL
    Keyword: BASIS
    atoms 1-2, 11-12  entry N          line   218 file /storage/home/hhive1/csargent30/data/miniconda3/envs/psi4/share/psi4/basis/aug-cc-pvdz.gbs 
    atoms 3-6, 13-16  entry H          line    40 file /storage/home/hhive1/csargent30/data/miniconda3/envs/psi4/share/psi4/basis/aug-cc-pvdz.gbs 
    atoms 7-10, 17-20 entry C          line   182 file /storage/home/hhive1/csargent30/data/miniconda3/envs/psi4/share/psi4/basis/aug-cc-pvdz.gbs 


         ---------------------------------------------------------
                                   SCF
               by Justin Turney, Rob Parrish, Andy Simmonett
                          and Daniel G. A. Smith
                              RHF Reference
                        2 Threads,   6675 MiB Core
         ---------------------------------------------------------

  ==> Geometry <==

    Molecular point group: c1
    Full point group: C1

    Geometry (in Bohr), charge = 0, multiplicity = 1:

       Center              X                  Y                   Z               Mass       
    ------------   -----------------  -----------------  -----------------  -----------------
         N           -1.330847580000     0.980326580000     0.426270370000    14.003074004430
         N            3.953773330000     0.980326580000     0.426270370000    14.003074004430
         H            3.567136740000     4.352185690000    -0.942309730000     1.007825032230
         H           -0.944210980000     4.352185690000    -0.942309730000     1.007825032230
         H           -0.944210980000    -2.391532530000     1.794850470000     1.007825032230
         H            3.567136740000    -2.391532530000     1.794850470000     1.007825032230
         C            2.622925760000     2.940979740000    -0.426270370000    12.000000000000
         C            0.000000000000     2.940979740000    -0.426270370000    12.000000000000
         C            0.000000000000    -0.980326580000     1.278811120000    12.000000000000
         C            2.622925760000    -0.980326580000     1.278811120000    12.000000000000
         N          -36.575751600000     0.980326580000   -13.682802820000    14.003074004430
         N          -31.291130690000     0.980326580000   -13.682802820000    14.003074004430
         H          -31.677767280000     4.352185690000   -15.051382920000     1.007825032230
         H          -36.189115000000     4.352185690000   -15.051382920000     1.007825032230
         H          -36.189115000000    -2.391532530000   -12.314222720000     1.007825032230
         H          -31.677767280000    -2.391532530000   -12.314222720000     1.007825032230
         C          -32.621978260000     2.940979740000   -14.535343570000    12.000000000000
         C          -35.244904020000     2.940979740000   -14.535343570000    12.000000000000
         C          -35.244904020000    -0.980326580000   -12.830262080000    12.000000000000
         C          -32.621978260000    -0.980326580000   -12.830262080000    12.000000000000

  Running in c1 symmetry.

  Rotational constants: A =      0.08643  B =      0.00056  C =      0.00055 [cm^-1]
  Rotational constants: A =   2591.25575  B =     16.71477  C =     16.63046 [MHz]
  Nuclear repulsion =  471.645223439098345

  Charge       = 0
  Multiplicity = 1
  Electrons    = 84
  Nalpha       = 42
  Nbeta        = 42

  ==> Algorithm <==

  SCF Algorithm Type is DF.
  DIIS enabled.
  MOM disabled.
  Fractional occupation disabled.
  Guess Type is SAD.
  Energy threshold   = 1.00e-10
  Density threshold  = 1.00e-10
  Integral threshold = 1.00e-12

  ==> Primary Basis <==

  Basis Set: AUG-CC-PVDZ
    Blend: AUG-CC-PVDZ
    Number of shells: 148
    Number of basis functions: 348
    Number of Cartesian functions: 372
    Spherical Harmonics?: true
    Max angular momentum: 2

   => Loading Basis Set <=

    Name: (AUG-CC-PVDZ AUX)
    Role: JKFIT
    Keyword: DF_BASIS_SCF
    atoms 1-2, 11-12  entry N          line   212 file /storage/home/hhive1/csargent30/data/miniconda3/envs/psi4/share/psi4/basis/aug-cc-pvdz-jkfit.gbs 
    atoms 3-6, 13-16  entry H          line    70 file /storage/home/hhive1/csargent30/data/miniconda3/envs/psi4/share/psi4/basis/aug-cc-pvdz-jkfit.gbs 
    atoms 7-10, 17-20 entry C          line   154 file /storage/home/hhive1/csargent30/data/miniconda3/envs/psi4/share/psi4/basis/aug-cc-pvdz-jkfit.gbs 

  ==> Integral Setup <==

  ==> DiskDFJK: Density-Fitted J/K Matrices <==

    J tasked:                  Yes
    K tasked:                  Yes
    wK tasked:                  No
    OpenMP threads:              2
    Integrals threads:           2
    Memory [MiB]:             5006
    Algorithm:                Core
    Integral Cache:           SAVE
    Schwarz Cutoff:          1E-12
    Fitting Condition:       1E-10

   => Auxiliary Basis Set <=

  Basis Set: (AUG-CC-PVDZ AUX)
    Blend: AUG-CC-PVDZ-JKFIT
    Number of shells: 432
    Number of basis functions: 1288
    Number of Cartesian functions: 1492
    Spherical Harmonics?: true
    Max angular momentum: 3

  Minimum eigenvalue in the overlap matrix is 9.4897415938E-06.
  Reciprocal condition number of the overlap matrix is 7.4016873155E-07.
    Using symmetric orthogonalization.

  ==> Pre-Iterations <==

  SCF Guess: Superposition of Atomic Densities via on-the-fly atomic UHF (no occupation information).

   -------------------------
    Irrep   Nso     Nmo    
   -------------------------
     A        348     348 
   -------------------------
    Total     348     348
   -------------------------

  ==> Iterations <==

                           Total Energy        Delta E     RMS |[F,P]|

   @DF-RHF iter SAD:  -524.65046251707122   -5.24650e+02   0.00000e+00 
   @DF-RHF iter   1:  -525.07881197690574   -4.28349e-01   1.58372e-03 DIIS
   @DF-RHF iter   2:  -525.25757295085953   -1.78761e-01   5.80774e-04 DIIS
   @DF-RHF iter   3:  -525.27724238018254   -1.96694e-02   1.81373e-04 DIIS
   @DF-RHF iter   4:  -525.27969194408297   -2.44956e-03   5.34021e-05 DIIS
   @DF-RHF iter   5:  -525.27987115493090   -1.79211e-04   1.06853e-05 DIIS
   @DF-RHF iter   6:  -525.27988425588660   -1.31010e-05   3.46868e-06 DIIS
   @DF-RHF iter   7:  -525.27988616077732   -1.90489e-06   9.05384e-07 DIIS
   @DF-RHF iter   8:  -525.27988630855612   -1.47779e-07   1.41246e-07 DIIS
   @DF-RHF iter   9:  -525.27988631251787   -3.96176e-09   3.40419e-08 DIIS
   @DF-RHF iter  10:  -525.27988631266385   -1.45974e-10   1.92735e-08 DIIS
   @DF-RHF iter  11:  -525.27988631269250   -2.86491e-11   2.80427e-09 DIIS
   @DF-RHF iter  12:  -525.27988631269363   -1.13687e-12   5.15470e-10 DIIS
   @DF-RHF iter  13:  -525.27988631269409   -4.54747e-13   2.56612e-10 DIIS
   @DF-RHF iter  14:  -525.27988631269454   -4.54747e-13   5.80972e-11 DIIS
  Energy and wave function converged.


  ==> Post-Iterations <==

    Orbital Energies [Eh]
    ---------------------

    Doubly Occupied:                                                      

       1A    -15.597952     2A    -15.597952     3A    -15.597930  
       4A    -15.597930     5A    -11.274118     6A    -11.274118  
       7A    -11.274073     8A    -11.274073     9A    -11.272855  
      10A    -11.272855    11A    -11.272848    12A    -11.272848  
      13A     -1.313225    14A     -1.313225    15A     -1.224054  
      16A     -1.224054    17A     -1.076683    18A     -1.076683  
      19A     -0.922542    20A     -0.922542    21A     -0.919162  
      22A     -0.919162    23A     -0.760516    24A     -0.760516  
      25A     -0.738282    26A     -0.738282    27A     -0.706093  
      28A     -0.706093    29A     -0.647567    30A     -0.647567  
      31A     -0.580590    32A     -0.580590    33A     -0.574248  
      34A     -0.574248    35A     -0.496990    36A     -0.496990  
      37A     -0.434166    38A     -0.434166    39A     -0.415733  
      40A     -0.415733    41A     -0.359804    42A     -0.359804  

    Virtual:                                                              

      43A      0.034612    44A      0.034612    45A      0.040848  
      46A      0.040848    47A      0.048506    48A      0.048509  
      49A      0.058709    50A      0.058710    51A      0.067232  
      52A      0.067232    53A      0.099540    54A      0.099540  
      55A      0.101066    56A      0.101066    57A      0.114321  
      58A      0.114321    59A      0.115074    60A      0.115074  
      61A      0.123896    62A      0.123900    63A      0.125445  
      64A      0.125445    65A      0.128780    66A      0.128780  
      67A      0.133005    68A      0.133005    69A      0.158312  
      70A      0.158312    71A      0.161199    72A      0.161200  
      73A      0.161446    74A      0.161447    75A      0.164032  
      76A      0.164039    77A      0.175298    78A      0.175299  
      79A      0.187039    80A      0.187039    81A      0.204025  
      82A      0.204025    83A      0.212663    84A      0.212664  
      85A      0.250640    86A      0.250640    87A      0.267881  
      88A      0.267881    89A      0.278178    90A      0.278178  
      91A      0.287936    92A      0.287936    93A      0.293327  
      94A      0.293327    95A      0.295874    96A      0.295880  
      97A      0.314954    98A      0.314954    99A      0.320578  
     100A      0.320578   101A      0.355550   102A      0.355550  
     103A      0.358027   104A      0.358027   105A      0.364782  
     106A      0.364782   107A      0.382701   108A      0.382704  
     109A      0.399008   110A      0.399009   111A      0.410016  
     112A      0.410016   113A      0.425572   114A      0.425572  
     115A      0.434043   116A      0.434043   117A      0.437327  
     118A      0.437328   119A      0.452213   120A      0.452214  
     121A      0.471603   122A      0.471604   123A      0.492259  
     124A      0.492259   125A      0.504980   126A      0.504980  
     127A      0.515033   128A      0.515033   129A      0.524667  
     130A      0.524667   131A      0.528788   132A      0.528788  
     133A      0.554697   134A      0.554697   135A      0.570655  
     136A      0.570655   137A      0.587656   138A      0.587656  
     139A      0.591628   140A      0.591628   141A      0.593921  
     142A      0.593921   143A      0.609050   144A      0.609050  
     145A      0.643640   146A      0.643640   147A      0.644439  
     148A      0.644440   149A      0.685257   150A      0.685257  
     151A      0.687879   152A      0.687879   153A      0.690051  
     154A      0.690051   155A      0.690463   156A      0.690464  
     157A      0.694947   158A      0.694947   159A      0.703949  
     160A      0.703952   161A      0.746676   162A      0.746676  
     163A      0.754936   164A      0.754936   165A      0.767088  
     166A      0.767088   167A      0.781528   168A      0.781528  
     169A      0.799934   170A      0.799934   171A      0.802829  
     172A      0.802829   173A      0.819137   174A      0.819137  
     175A      0.831192   176A      0.831192   177A      0.847635  
     178A      0.847635   179A      0.880664   180A      0.880664  
     181A      0.886530   182A      0.886530   183A      0.894803  
     184A      0.894803   185A      0.929391   186A      0.929392  
     187A      0.939587   188A      0.939588   189A      0.949427  
     190A      0.949427   191A      0.996773   192A      0.996774  
     193A      0.999031   194A      0.999031   195A      1.013138  
     196A      1.013138   197A      1.033491   198A      1.033491  
     199A      1.051314   200A      1.051314   201A      1.089504  
     202A      1.089504   203A      1.100567   204A      1.100567  
     205A      1.122319   206A      1.122319   207A      1.124165  
     208A      1.124165   209A      1.134482   210A      1.134482  
     211A      1.158861   212A      1.158862   213A      1.173685  
     214A      1.173685   215A      1.235538   216A      1.235538  
     217A      1.238925   218A      1.238925   219A      1.309794  
     220A      1.309794   221A      1.331269   222A      1.331269  
     223A      1.414402   224A      1.414402   225A      1.451648  
     226A      1.451648   227A      1.486259   228A      1.486259  
     229A      1.488197   230A      1.488197   231A      1.499331  
     232A      1.499331   233A      1.502966   234A      1.502966  
     235A      1.518371   236A      1.518371   237A      1.572807  
     238A      1.572807   239A      1.574313   240A      1.574313  
     241A      1.587956   242A      1.587957   243A      1.636102  
     244A      1.636102   245A      1.640624   246A      1.640624  
     247A      1.648340   248A      1.648341   249A      1.676672  
     250A      1.676672   251A      1.717112   252A      1.717112  
     253A      1.746718   254A      1.746718   255A      1.755224  
     256A      1.755224   257A      1.783883   258A      1.783883  
     259A      1.815848   260A      1.815848   261A      1.893443  
     262A      1.893443   263A      1.916258   264A      1.916258  
     265A      1.964949   266A      1.964949   267A      1.987796  
     268A      1.987796   269A      2.031323   270A      2.031323  
     271A      2.091669   272A      2.091669   273A      2.101148  
     274A      2.101148   275A      2.143074   276A      2.143074  
     277A      2.163476   278A      2.163476   279A      2.190608  
     280A      2.190608   281A      2.193422   282A      2.193422  
     283A      2.200500   284A      2.200500   285A      2.202530  
     286A      2.202530   287A      2.227747   288A      2.227747  
     289A      2.312882   290A      2.312882   291A      2.355349  
     292A      2.355349   293A      2.431078   294A      2.431078  
     295A      2.439098   296A      2.439098   297A      2.519499  
     298A      2.519499   299A      2.522515   300A      2.522515  
     301A      2.584889   302A      2.584889   303A      2.606388  
     304A      2.606388   305A      2.665345   306A      2.665345  
     307A      2.675531   308A      2.675531   309A      2.686516  
     310A      2.686516   311A      2.714106   312A      2.714107  
     313A      2.718711   314A      2.718711   315A      2.844136  
     316A      2.844136   317A      2.865882   318A      2.865882  
     319A      2.939317   320A      2.939317   321A      3.001976  
     322A      3.001976   323A      3.017993   324A      3.017993  
     325A      3.032308   326A      3.032308   327A      3.094257  
     328A      3.094257   329A      3.220437   330A      3.220437  
     331A      3.256100   332A      3.256100   333A      3.285001  
     334A      3.285001   335A      3.366261   336A      3.366261  
     337A      3.413487   338A      3.413487   339A      3.515041  
     340A      3.515041   341A      3.590775   342A      3.590775  
     343A      3.627890   344A      3.627890   345A      3.977356  
     346A      3.977357   347A      4.253606   348A      4.253606  

    Final Occupation by Irrep:
              A 
    DOCC [    42 ]

  @DF-RHF Final Energy:  -525.27988631269454

   => Energetics <=

    Nuclear Repulsion Energy =            471.6452234390983449
    One-Electron Energy =               -1644.0124977214952651
    Two-Electron Energy =                 647.0873879697023767
    Total Energy =                       -525.2798863126945434

Computation Completed


Properties will be evaluated at   0.000000,   0.000000,   0.000000 [a0]

Properties computed using the SCF density matrix

  Nuclear Dipole Moment: [e a0]
     X: -1370.1231      Y:    82.3474      Z:  -556.7744

  Electronic Dipole Moment: [e a0]
     X:  1370.1231      Y:   -82.3474      Z:   556.7744

  Dipole Moment: [e a0]
     X:     0.0000      Y:     0.0000      Z:    -0.0000     Total:     0.0000

  Dipole Moment: [D]
     X:     0.0000      Y:     0.0000      Z:    -0.0000     Total:     0.0000


*** tstop() called on atl1-1-01-013-9-r.pace.gatech.edu at Mon Nov 29 16:11:03 2021
Module time:
	user time   =      32.71 seconds =       0.55 minutes
	system time =       1.14 seconds =       0.02 minutes
	total time  =         18 seconds =       0.30 minutes
Total time:
	user time   =      32.71 seconds =       0.55 minutes
	system time =       1.14 seconds =       0.02 minutes
	total time  =         18 seconds =       0.30 minutes

  //>>>>>>>>>>>>>>>>>>>>>>>>>>>>>>>>>>>//
  //            Monomer A HF           //
  //<<<<<<<<<<<<<<<<<<<<<<<<<<<<<<<<<<<//


*** tstart() called on atl1-1-01-013-9-r.pace.gatech.edu
*** at Mon Nov 29 16:11:03 2021

   => Loading Basis Set <=

    Name: AUG-CC-PVDZ
    Role: ORBITAL
    Keyword: BASIS
    atoms 1-2, 11-12  entry N          line   218 file /storage/home/hhive1/csargent30/data/miniconda3/envs/psi4/share/psi4/basis/aug-cc-pvdz.gbs 
    atoms 3-6, 13-16  entry H          line    40 file /storage/home/hhive1/csargent30/data/miniconda3/envs/psi4/share/psi4/basis/aug-cc-pvdz.gbs 
    atoms 7-10, 17-20 entry C          line   182 file /storage/home/hhive1/csargent30/data/miniconda3/envs/psi4/share/psi4/basis/aug-cc-pvdz.gbs 


         ---------------------------------------------------------
                                   SCF
               by Justin Turney, Rob Parrish, Andy Simmonett
                          and Daniel G. A. Smith
                              RHF Reference
                        2 Threads,   6675 MiB Core
         ---------------------------------------------------------

  ==> Geometry <==

    Molecular point group: c1
    Full point group: C1

    Geometry (in Bohr), charge = 0, multiplicity = 1:

       Center              X                  Y                   Z               Mass       
    ------------   -----------------  -----------------  -----------------  -----------------
         N           -1.330847580000     0.980326580000     0.426270370000    14.003074004430
         N            3.953773330000     0.980326580000     0.426270370000    14.003074004430
         H            3.567136740000     4.352185690000    -0.942309730000     1.007825032230
         H           -0.944210980000     4.352185690000    -0.942309730000     1.007825032230
         H           -0.944210980000    -2.391532530000     1.794850470000     1.007825032230
         H            3.567136740000    -2.391532530000     1.794850470000     1.007825032230
         C            2.622925760000     2.940979740000    -0.426270370000    12.000000000000
         C            0.000000000000     2.940979740000    -0.426270370000    12.000000000000
         C            0.000000000000    -0.980326580000     1.278811120000    12.000000000000
         C            2.622925760000    -0.980326580000     1.278811120000    12.000000000000
      Gh(N)         -36.575751600000     0.980326580000   -13.682802820000    14.003074004430
      Gh(N)         -31.291130690000     0.980326580000   -13.682802820000    14.003074004430
      Gh(H)         -31.677767280000     4.352185690000   -15.051382920000     1.007825032230
      Gh(H)         -36.189115000000     4.352185690000   -15.051382920000     1.007825032230
      Gh(H)         -36.189115000000    -2.391532530000   -12.314222720000     1.007825032230
      Gh(H)         -31.677767280000    -2.391532530000   -12.314222720000     1.007825032230
      Gh(C)         -32.621978260000     2.940979740000   -14.535343570000    12.000000000000
      Gh(C)         -35.244904020000     2.940979740000   -14.535343570000    12.000000000000
      Gh(C)         -35.244904020000    -0.980326580000   -12.830262080000    12.000000000000
      Gh(C)         -32.621978260000    -0.980326580000   -12.830262080000    12.000000000000

  Running in c1 symmetry.

  Rotational constants: A =      0.08643  B =      0.00056  C =      0.00055 [cm^-1]
  Rotational constants: A =   2591.25575  B =     16.71477  C =     16.63046 [MHz]
  Nuclear repulsion =  212.551731110485349

  Charge       = 0
  Multiplicity = 1
  Electrons    = 42
  Nalpha       = 21
  Nbeta        = 21

  ==> Algorithm <==

  SCF Algorithm Type is DF.
  DIIS enabled.
  MOM disabled.
  Fractional occupation disabled.
  Guess Type is SAD.
  Energy threshold   = 1.00e-10
  Density threshold  = 1.00e-10
  Integral threshold = 1.00e-12

  ==> Primary Basis <==

  Basis Set: AUG-CC-PVDZ
    Blend: AUG-CC-PVDZ
    Number of shells: 148
    Number of basis functions: 348
    Number of Cartesian functions: 372
    Spherical Harmonics?: true
    Max angular momentum: 2

   => Loading Basis Set <=

    Name: (AUG-CC-PVDZ AUX)
    Role: JKFIT
    Keyword: DF_BASIS_SCF
    atoms 1-2, 11-12  entry N          line   212 file /storage/home/hhive1/csargent30/data/miniconda3/envs/psi4/share/psi4/basis/aug-cc-pvdz-jkfit.gbs 
    atoms 3-6, 13-16  entry H          line    70 file /storage/home/hhive1/csargent30/data/miniconda3/envs/psi4/share/psi4/basis/aug-cc-pvdz-jkfit.gbs 
    atoms 7-10, 17-20 entry C          line   154 file /storage/home/hhive1/csargent30/data/miniconda3/envs/psi4/share/psi4/basis/aug-cc-pvdz-jkfit.gbs 

  ==> Integral Setup <==

  ==> DiskDFJK: Density-Fitted J/K Matrices <==

    J tasked:                  Yes
    K tasked:                  Yes
    wK tasked:                  No
    OpenMP threads:              2
    Integrals threads:           2
    Memory [MiB]:             5006
    Algorithm:                Core
    Integral Cache:           LOAD
    Schwarz Cutoff:          1E-12
    Fitting Condition:       1E-10

   => Auxiliary Basis Set <=

  Basis Set: (AUG-CC-PVDZ AUX)
    Blend: AUG-CC-PVDZ-JKFIT
    Number of shells: 432
    Number of basis functions: 1288
    Number of Cartesian functions: 1492
    Spherical Harmonics?: true
    Max angular momentum: 3

  Minimum eigenvalue in the overlap matrix is 9.4897415938E-06.
  Reciprocal condition number of the overlap matrix is 7.4016873155E-07.
    Using symmetric orthogonalization.

  ==> Pre-Iterations <==

  SCF Guess: Superposition of Atomic Densities via on-the-fly atomic UHF (no occupation information).

   -------------------------
    Irrep   Nso     Nmo    
   -------------------------
     A        348     348 
   -------------------------
    Total     348     348
   -------------------------

  ==> Iterations <==

                           Total Energy        Delta E     RMS |[F,P]|

   @DF-RHF iter SAD:  -262.32523125913133   -2.62325e+02   0.00000e+00 
   @DF-RHF iter   1:  -262.53940798264483   -2.14177e-01   1.11985e-03 DIIS
   @DF-RHF iter   2:  -262.62878837506281   -8.93804e-02   4.10664e-04 DIIS
   @DF-RHF iter   3:  -262.63862291964341   -9.83454e-03   1.28248e-04 DIIS
   @DF-RHF iter   4:  -262.63984767291902   -1.22475e-03   3.77599e-05 DIIS
   @DF-RHF iter   5:  -262.63993727337970   -8.96005e-05   7.55558e-06 DIIS
   @DF-RHF iter   6:  -262.63994382363933   -6.55026e-06   2.45264e-06 DIIS
   @DF-RHF iter   7:  -262.63994477601238   -9.52373e-07   6.40130e-07 DIIS
   @DF-RHF iter   8:  -262.63994484990121   -7.38888e-08   9.91693e-08 DIIS
   @DF-RHF iter   9:  -262.63994485188692   -1.98571e-09   1.88228e-08 DIIS
   @DF-RHF iter  10:  -262.63994485195769   -7.07701e-11   3.19151e-09 DIIS
   @DF-RHF iter  11:  -262.63994485195923   -1.53477e-12   5.22317e-10 DIIS
   @DF-RHF iter  12:  -262.63994485195946   -2.27374e-13   9.54298e-11 DIIS
  Energy and wave function converged.


  ==> Post-Iterations <==

    Orbital Energies [Eh]
    ---------------------

    Doubly Occupied:                                                      

       1A    -15.598072     2A    -15.598053     3A    -11.274239  
       4A    -11.274194     5A    -11.272975     6A    -11.272969  
       7A     -1.313347     8A     -1.224176     9A     -1.076803  
      10A     -0.922662    11A     -0.919282    12A     -0.760637  
      13A     -0.738402    14A     -0.706214    15A     -0.647687  
      16A     -0.580711    17A     -0.574369    18A     -0.497113  
      19A     -0.434288    20A     -0.415855    21A     -0.359924  

    Virtual:                                                              

      22A      0.022479    23A      0.034497    24A      0.039545  
      25A      0.040739    26A      0.041232    27A      0.048383  
      28A      0.058591    29A      0.058894    30A      0.067113  
      31A      0.079725    32A      0.085087    33A      0.099419  
      34A      0.100948    35A      0.104038    36A      0.108561  
      37A      0.108904    38A      0.114201    39A      0.114951  
      40A      0.122540    41A      0.123776    42A      0.125322  
      43A      0.125627    44A      0.128661    45A      0.130988  
      46A      0.132889    47A      0.134193    48A      0.152149  
      49A      0.153078    50A      0.158199    51A      0.159390  
      52A      0.161084    53A      0.161326    54A      0.163914  
      55A      0.175179    56A      0.176789    57A      0.186918  
      58A      0.197850    59A      0.203908    60A      0.203945  
      61A      0.206708    62A      0.212538    63A      0.222423  
      64A      0.233660    65A      0.239488    66A      0.250517  
      67A      0.255268    68A      0.267756    69A      0.270824  
      70A      0.278057    71A      0.287812    72A      0.293207  
      73A      0.295748    74A      0.302363    75A      0.314832  
      76A      0.320457    77A      0.320685    78A      0.328202  
      79A      0.331345    80A      0.344169    81A      0.355428  
      82A      0.357908    83A      0.364661    84A      0.380544  
      85A      0.382582    86A      0.385679    87A      0.398891  
      88A      0.401319    89A      0.409895    90A      0.419317  
      91A      0.424991    92A      0.425453    93A      0.433925  
      94A      0.437212    95A      0.441977    96A      0.452092  
      97A      0.460701    98A      0.461147    99A      0.471483  
     100A      0.476129   101A      0.478863   102A      0.492140  
     103A      0.504862   104A      0.507864   105A      0.514914  
     106A      0.523811   107A      0.524547   108A      0.528668  
     109A      0.535774   110A      0.554577   111A      0.557889  
     112A      0.561556   113A      0.564539   114A      0.570535  
     115A      0.581948   116A      0.587535   117A      0.591506  
     118A      0.593799   119A      0.596054   120A      0.608929  
     121A      0.615186   122A      0.620204   123A      0.636410  
     124A      0.643517   125A      0.644321   126A      0.649398  
     127A      0.651534   128A      0.679457   129A      0.685136  
     130A      0.685360   131A      0.687758   132A      0.689932  
     133A      0.690342   134A      0.694828   135A      0.703829  
     136A      0.719930   137A      0.728435   138A      0.746558  
     139A      0.746831   140A      0.754817   141A      0.766965  
     142A      0.775725   143A      0.781406   144A      0.793676  
     145A      0.799815   146A      0.802710   147A      0.811138  
     148A      0.812021   149A      0.819016   150A      0.824797  
     151A      0.831071   152A      0.847513   153A      0.848107  
     154A      0.849229   155A      0.868649   156A      0.880544  
     157A      0.886410   158A      0.888193   159A      0.894682  
     160A      0.906147   161A      0.929157   162A      0.929272  
     163A      0.939466   164A      0.947736   165A      0.949307  
     166A      0.970823   167A      0.976980   168A      0.986683  
     169A      0.996652   170A      0.998908   171A      1.013015  
     172A      1.032463   173A      1.033370   174A      1.046974  
     175A      1.051194   176A      1.076308   177A      1.089381  
     178A      1.090323   179A      1.100445   180A      1.122199  
     181A      1.124044   182A      1.130707   183A      1.134362  
     184A      1.140310   185A      1.158740   186A      1.168632  
     187A      1.170720   188A      1.173565   189A      1.192252  
     190A      1.193286   191A      1.200518   192A      1.222360  
     193A      1.235416   194A      1.238804   195A      1.251073  
     196A      1.307602   197A      1.309673   198A      1.318307  
     199A      1.326458   200A      1.329657   201A      1.331148  
     202A      1.346854   203A      1.389257   204A      1.414282  
     205A      1.448435   206A      1.451526   207A      1.455505  
     208A      1.479178   209A      1.486137   210A      1.487250  
     211A      1.488075   212A      1.499211   213A      1.502846  
     214A      1.518252   215A      1.572686   216A      1.574192  
     217A      1.587836   218A      1.635982   219A      1.640505  
     220A      1.648219   221A      1.659286   222A      1.676552  
     223A      1.698112   224A      1.716991   225A      1.746597  
     226A      1.755104   227A      1.783762   228A      1.815727  
     229A      1.893323   230A      1.916137   231A      1.964829  
     232A      1.987674   233A      2.031202   234A      2.070272  
     235A      2.091548   236A      2.101028   237A      2.102810  
     238A      2.119488   239A      2.142953   240A      2.156721  
     241A      2.159235   242A      2.163355   243A      2.190488  
     244A      2.193301   245A      2.194906   246A      2.200380  
     247A      2.202410   248A      2.227626   249A      2.234820  
     250A      2.241248   251A      2.249705   252A      2.310060  
     253A      2.312761   254A      2.319593   255A      2.355229  
     256A      2.384851   257A      2.419255   258A      2.430957  
     259A      2.435459   260A      2.438211   261A      2.438977  
     262A      2.472722   263A      2.486770   264A      2.498366  
     265A      2.519379   266A      2.522395   267A      2.525113  
     268A      2.546041   269A      2.568373   270A      2.584766  
     271A      2.592418   272A      2.606266   273A      2.626018  
     274A      2.665224   275A      2.675409   276A      2.686395  
     277A      2.713985   278A      2.716943   279A      2.718591  
     280A      2.726698   281A      2.767981   282A      2.844014  
     283A      2.865761   284A      2.904083   285A      2.939196  
     286A      2.947274   287A      2.955798   288A      2.973389  
     289A      3.001855   290A      3.017872   291A      3.032186  
     292A      3.058377   293A      3.065275   294A      3.094137  
     295A      3.113915   296A      3.220316   297A      3.245776  
     298A      3.255980   299A      3.284880   300A      3.289730  
     301A      3.322008   302A      3.337790   303A      3.340534  
     304A      3.348706   305A      3.351431   306A      3.366140  
     307A      3.412678   308A      3.413367   309A      3.470833  
     310A      3.502033   311A      3.514920   312A      3.521444  
     313A      3.590655   314A      3.604517   315A      3.605725  
     316A      3.627769   317A      3.700565   318A      3.819003  
     319A      3.830768   320A      3.941050   321A      3.969175  
     322A      3.977236   323A      4.011482   324A      4.194838  
     325A      4.242329   326A      4.253485   327A      4.442068  
     328A      4.546909   329A      4.579357   330A      4.867720  
     331A      4.976223   332A      5.057932   333A      5.261791  
     334A      5.316619   335A      5.630277   336A      5.691404  
     337A      5.827228   338A      5.952711   339A      6.283908  
     340A      6.306968   341A      6.453845   342A      6.631279  
     343A     18.125796   344A     18.208058   345A     19.017653  
     346A     19.343079   347A     25.287143   348A     25.374863  

    Final Occupation by Irrep:
              A 
    DOCC [    21 ]

  @DF-RHF Final Energy:  -262.63994485195946

   => Energetics <=

    Nuclear Repulsion Energy =            212.5517311104853491
    One-Electron Energy =                -775.4594096322589394
    Two-Electron Energy =                 300.2677336698141630
    Total Energy =                       -262.6399448519594557

Computation Completed


Properties will be evaluated at   0.000000,   0.000000,   0.000000 [a0]

Properties computed using the SCF density matrix

  Nuclear Dipole Moment: [e a0]
     X:    55.0814      Y:    41.1737      Z:    17.9034

  Electronic Dipole Moment: [e a0]
     X:   -55.0814      Y:   -41.1737      Z:   -17.9034

  Dipole Moment: [e a0]
     X:    -0.0000      Y:     0.0000      Z:     0.0000     Total:     0.0000

  Dipole Moment: [D]
     X:    -0.0000      Y:     0.0000      Z:     0.0000     Total:     0.0000


*** tstop() called on atl1-1-01-013-9-r.pace.gatech.edu at Mon Nov 29 16:11:14 2021
Module time:
	user time   =      20.59 seconds =       0.34 minutes
	system time =       0.60 seconds =       0.01 minutes
	total time  =         11 seconds =       0.18 minutes
Total time:
	user time   =      53.31 seconds =       0.89 minutes
	system time =       1.75 seconds =       0.03 minutes
	total time  =         29 seconds =       0.48 minutes

  //>>>>>>>>>>>>>>>>>>>>>>>>>>>>>>>>>>>//
  //            Monomer B HF           //
  //<<<<<<<<<<<<<<<<<<<<<<<<<<<<<<<<<<<//


*** tstart() called on atl1-1-01-013-9-r.pace.gatech.edu
*** at Mon Nov 29 16:11:14 2021

   => Loading Basis Set <=

    Name: AUG-CC-PVDZ
    Role: ORBITAL
    Keyword: BASIS
    atoms 1-2, 11-12  entry N          line   218 file /storage/home/hhive1/csargent30/data/miniconda3/envs/psi4/share/psi4/basis/aug-cc-pvdz.gbs 
    atoms 3-6, 13-16  entry H          line    40 file /storage/home/hhive1/csargent30/data/miniconda3/envs/psi4/share/psi4/basis/aug-cc-pvdz.gbs 
    atoms 7-10, 17-20 entry C          line   182 file /storage/home/hhive1/csargent30/data/miniconda3/envs/psi4/share/psi4/basis/aug-cc-pvdz.gbs 


         ---------------------------------------------------------
                                   SCF
               by Justin Turney, Rob Parrish, Andy Simmonett
                          and Daniel G. A. Smith
                              RHF Reference
                        2 Threads,   6675 MiB Core
         ---------------------------------------------------------

  ==> Geometry <==

    Molecular point group: c1
    Full point group: C1

    Geometry (in Bohr), charge = 0, multiplicity = 1:

       Center              X                  Y                   Z               Mass       
    ------------   -----------------  -----------------  -----------------  -----------------
      Gh(N)          -1.330847580000     0.980326580000     0.426270370000    14.003074004430
      Gh(N)           3.953773330000     0.980326580000     0.426270370000    14.003074004430
      Gh(H)           3.567136740000     4.352185690000    -0.942309730000     1.007825032230
      Gh(H)          -0.944210980000     4.352185690000    -0.942309730000     1.007825032230
      Gh(H)          -0.944210980000    -2.391532530000     1.794850470000     1.007825032230
      Gh(H)           3.567136740000    -2.391532530000     1.794850470000     1.007825032230
      Gh(C)           2.622925760000     2.940979740000    -0.426270370000    12.000000000000
      Gh(C)           0.000000000000     2.940979740000    -0.426270370000    12.000000000000
      Gh(C)           0.000000000000    -0.980326580000     1.278811120000    12.000000000000
      Gh(C)           2.622925760000    -0.980326580000     1.278811120000    12.000000000000
         N          -36.575751600000     0.980326580000   -13.682802820000    14.003074004430
         N          -31.291130690000     0.980326580000   -13.682802820000    14.003074004430
         H          -31.677767280000     4.352185690000   -15.051382920000     1.007825032230
         H          -36.189115000000     4.352185690000   -15.051382920000     1.007825032230
         H          -36.189115000000    -2.391532530000   -12.314222720000     1.007825032230
         H          -31.677767280000    -2.391532530000   -12.314222720000     1.007825032230
         C          -32.621978260000     2.940979740000   -14.535343570000    12.000000000000
         C          -35.244904020000     2.940979740000   -14.535343570000    12.000000000000
         C          -35.244904020000    -0.980326580000   -12.830262080000    12.000000000000
         C          -32.621978260000    -0.980326580000   -12.830262080000    12.000000000000

  Running in c1 symmetry.

  Rotational constants: A =      0.08643  B =      0.00056  C =      0.00055 [cm^-1]
  Rotational constants: A =   2591.25575  B =     16.71477  C =     16.63046 [MHz]
  Nuclear repulsion =  212.551731110485377

  Charge       = 0
  Multiplicity = 1
  Electrons    = 42
  Nalpha       = 21
  Nbeta        = 21

  ==> Algorithm <==

  SCF Algorithm Type is DF.
  DIIS enabled.
  MOM disabled.
  Fractional occupation disabled.
  Guess Type is SAD.
  Energy threshold   = 1.00e-10
  Density threshold  = 1.00e-10
  Integral threshold = 1.00e-12

  ==> Primary Basis <==

  Basis Set: AUG-CC-PVDZ
    Blend: AUG-CC-PVDZ
    Number of shells: 148
    Number of basis functions: 348
    Number of Cartesian functions: 372
    Spherical Harmonics?: true
    Max angular momentum: 2

   => Loading Basis Set <=

    Name: (AUG-CC-PVDZ AUX)
    Role: JKFIT
    Keyword: DF_BASIS_SCF
    atoms 1-2, 11-12  entry N          line   212 file /storage/home/hhive1/csargent30/data/miniconda3/envs/psi4/share/psi4/basis/aug-cc-pvdz-jkfit.gbs 
    atoms 3-6, 13-16  entry H          line    70 file /storage/home/hhive1/csargent30/data/miniconda3/envs/psi4/share/psi4/basis/aug-cc-pvdz-jkfit.gbs 
    atoms 7-10, 17-20 entry C          line   154 file /storage/home/hhive1/csargent30/data/miniconda3/envs/psi4/share/psi4/basis/aug-cc-pvdz-jkfit.gbs 

  ==> Integral Setup <==

  ==> DiskDFJK: Density-Fitted J/K Matrices <==

    J tasked:                  Yes
    K tasked:                  Yes
    wK tasked:                  No
    OpenMP threads:              2
    Integrals threads:           2
    Memory [MiB]:             5006
    Algorithm:                Core
    Integral Cache:           LOAD
    Schwarz Cutoff:          1E-12
    Fitting Condition:       1E-10

   => Auxiliary Basis Set <=

  Basis Set: (AUG-CC-PVDZ AUX)
    Blend: AUG-CC-PVDZ-JKFIT
    Number of shells: 432
    Number of basis functions: 1288
    Number of Cartesian functions: 1492
    Spherical Harmonics?: true
    Max angular momentum: 3

  Minimum eigenvalue in the overlap matrix is 9.4897415938E-06.
  Reciprocal condition number of the overlap matrix is 7.4016873155E-07.
    Using symmetric orthogonalization.

  ==> Pre-Iterations <==

  SCF Guess: Superposition of Atomic Densities via on-the-fly atomic UHF (no occupation information).

   -------------------------
    Irrep   Nso     Nmo    
   -------------------------
     A        348     348 
   -------------------------
    Total     348     348
   -------------------------

  ==> Iterations <==

                           Total Energy        Delta E     RMS |[F,P]|

   @DF-RHF iter SAD:  -262.32523125719734   -2.62325e+02   0.00000e+00 
   @DF-RHF iter   1:  -262.53940798072352   -2.14177e-01   1.11985e-03 DIIS
   @DF-RHF iter   2:  -262.62878837313411   -8.93804e-02   4.10664e-04 DIIS
   @DF-RHF iter   3:  -262.63862291771363   -9.83454e-03   1.28248e-04 DIIS
   @DF-RHF iter   4:  -262.63984767098913   -1.22475e-03   3.77599e-05 DIIS
   @DF-RHF iter   5:  -262.63993727145032   -8.96005e-05   7.55558e-06 DIIS
   @DF-RHF iter   6:  -262.63994382170921   -6.55026e-06   2.45264e-06 DIIS
   @DF-RHF iter   7:  -262.63994477408272   -9.52374e-07   6.40130e-07 DIIS
   @DF-RHF iter   8:  -262.63994484797098   -7.38883e-08   9.91693e-08 DIIS
   @DF-RHF iter   9:  -262.63994484995652   -1.98554e-09   1.88228e-08 DIIS
   @DF-RHF iter  10:  -262.63994485002712   -7.05995e-11   3.19151e-09 DIIS
   @DF-RHF iter  11:  -262.63994485002962   -2.50111e-12   5.22318e-10 DIIS
   @DF-RHF iter  12:  -262.63994485002979   -1.70530e-13   9.54475e-11 DIIS
  Energy and wave function converged.


  ==> Post-Iterations <==

    Orbital Energies [Eh]
    ---------------------

    Doubly Occupied:                                                      

       1A    -15.598072     2A    -15.598053     3A    -11.274239  
       4A    -11.274194     5A    -11.272975     6A    -11.272969  
       7A     -1.313347     8A     -1.224176     9A     -1.076803  
      10A     -0.922662    11A     -0.919282    12A     -0.760637  
      13A     -0.738402    14A     -0.706214    15A     -0.647687  
      16A     -0.580711    17A     -0.574369    18A     -0.497113  
      19A     -0.434288    20A     -0.415855    21A     -0.359924  

    Virtual:                                                              

      22A      0.022479    23A      0.034497    24A      0.039545  
      25A      0.040739    26A      0.041232    27A      0.048383  
      28A      0.058591    29A      0.058894    30A      0.067113  
      31A      0.079725    32A      0.085087    33A      0.099419  
      34A      0.100948    35A      0.104038    36A      0.108561  
      37A      0.108904    38A      0.114201    39A      0.114951  
      40A      0.122540    41A      0.123776    42A      0.125322  
      43A      0.125627    44A      0.128661    45A      0.130988  
      46A      0.132889    47A      0.134193    48A      0.152149  
      49A      0.153078    50A      0.158199    51A      0.159390  
      52A      0.161084    53A      0.161326    54A      0.163914  
      55A      0.175179    56A      0.176789    57A      0.186918  
      58A      0.197850    59A      0.203908    60A      0.203945  
      61A      0.206708    62A      0.212538    63A      0.222423  
      64A      0.233660    65A      0.239488    66A      0.250517  
      67A      0.255268    68A      0.267756    69A      0.270824  
      70A      0.278056    71A      0.287812    72A      0.293207  
      73A      0.295749    74A      0.302363    75A      0.314832  
      76A      0.320457    77A      0.320685    78A      0.328202  
      79A      0.331345    80A      0.344169    81A      0.355428  
      82A      0.357908    83A      0.364661    84A      0.380544  
      85A      0.382583    86A      0.385679    87A      0.398891  
      88A      0.401319    89A      0.409895    90A      0.419317  
      91A      0.424991    92A      0.425453    93A      0.433925  
      94A      0.437212    95A      0.441977    96A      0.452092  
      97A      0.460701    98A      0.461147    99A      0.471483  
     100A      0.476129   101A      0.478863   102A      0.492140  
     103A      0.504862   104A      0.507864   105A      0.514914  
     106A      0.523811   107A      0.524547   108A      0.528668  
     109A      0.535774   110A      0.554577   111A      0.557889  
     112A      0.561556   113A      0.564539   114A      0.570535  
     115A      0.581948   116A      0.587535   117A      0.591506  
     118A      0.593799   119A      0.596054   120A      0.608929  
     121A      0.615186   122A      0.620204   123A      0.636410  
     124A      0.643517   125A      0.644321   126A      0.649398  
     127A      0.651534   128A      0.679457   129A      0.685136  
     130A      0.685360   131A      0.687758   132A      0.689932  
     133A      0.690342   134A      0.694828   135A      0.703829  
     136A      0.719930   137A      0.728435   138A      0.746558  
     139A      0.746831   140A      0.754817   141A      0.766965  
     142A      0.775725   143A      0.781406   144A      0.793676  
     145A      0.799815   146A      0.802710   147A      0.811138  
     148A      0.812021   149A      0.819016   150A      0.824797  
     151A      0.831071   152A      0.847513   153A      0.848107  
     154A      0.849229   155A      0.868649   156A      0.880544  
     157A      0.886410   158A      0.888193   159A      0.894682  
     160A      0.906147   161A      0.929157   162A      0.929272  
     163A      0.939466   164A      0.947736   165A      0.949307  
     166A      0.970823   167A      0.976980   168A      0.986683  
     169A      0.996652   170A      0.998908   171A      1.013015  
     172A      1.032463   173A      1.033370   174A      1.046974  
     175A      1.051194   176A      1.076308   177A      1.089381  
     178A      1.090323   179A      1.100445   180A      1.122199  
     181A      1.124044   182A      1.130707   183A      1.134362  
     184A      1.140310   185A      1.158740   186A      1.168632  
     187A      1.170720   188A      1.173565   189A      1.192252  
     190A      1.193286   191A      1.200518   192A      1.222360  
     193A      1.235416   194A      1.238804   195A      1.251073  
     196A      1.307602   197A      1.309674   198A      1.318307  
     199A      1.326458   200A      1.329657   201A      1.331148  
     202A      1.346854   203A      1.389257   204A      1.414282  
     205A      1.448435   206A      1.451526   207A      1.455505  
     208A      1.479178   209A      1.486137   210A      1.487250  
     211A      1.488075   212A      1.499211   213A      1.502846  
     214A      1.518252   215A      1.572686   216A      1.574192  
     217A      1.587836   218A      1.635982   219A      1.640505  
     220A      1.648219   221A      1.659286   222A      1.676552  
     223A      1.698112   224A      1.716991   225A      1.746597  
     226A      1.755104   227A      1.783762   228A      1.815727  
     229A      1.893323   230A      1.916137   231A      1.964829  
     232A      1.987674   233A      2.031202   234A      2.070272  
     235A      2.091548   236A      2.101028   237A      2.102810  
     238A      2.119488   239A      2.142953   240A      2.156721  
     241A      2.159235   242A      2.163355   243A      2.190488  
     244A      2.193301   245A      2.194906   246A      2.200380  
     247A      2.202410   248A      2.227626   249A      2.234820  
     250A      2.241248   251A      2.249705   252A      2.310060  
     253A      2.312761   254A      2.319593   255A      2.355229  
     256A      2.384851   257A      2.419255   258A      2.430957  
     259A      2.435459   260A      2.438211   261A      2.438977  
     262A      2.472722   263A      2.486770   264A      2.498366  
     265A      2.519379   266A      2.522395   267A      2.525113  
     268A      2.546041   269A      2.568373   270A      2.584766  
     271A      2.592418   272A      2.606266   273A      2.626018  
     274A      2.665224   275A      2.675409   276A      2.686395  
     277A      2.713985   278A      2.716943   279A      2.718591  
     280A      2.726698   281A      2.767981   282A      2.844014  
     283A      2.865761   284A      2.904083   285A      2.939196  
     286A      2.947274   287A      2.955798   288A      2.973389  
     289A      3.001855   290A      3.017872   291A      3.032186  
     292A      3.058377   293A      3.065275   294A      3.094137  
     295A      3.113915   296A      3.220316   297A      3.245776  
     298A      3.255980   299A      3.284880   300A      3.289730  
     301A      3.322008   302A      3.337790   303A      3.340534  
     304A      3.348706   305A      3.351431   306A      3.366140  
     307A      3.412678   308A      3.413367   309A      3.470833  
     310A      3.502033   311A      3.514920   312A      3.521444  
     313A      3.590655   314A      3.604517   315A      3.605725  
     316A      3.627769   317A      3.700565   318A      3.819003  
     319A      3.830768   320A      3.941050   321A      3.969175  
     322A      3.977236   323A      4.011482   324A      4.194838  
     325A      4.242329   326A      4.253485   327A      4.442068  
     328A      4.546909   329A      4.579357   330A      4.867720  
     331A      4.976223   332A      5.057932   333A      5.261791  
     334A      5.316619   335A      5.630277   336A      5.691404  
     337A      5.827228   338A      5.952711   339A      6.283908  
     340A      6.306968   341A      6.453845   342A      6.631279  
     343A     18.125796   344A     18.208058   345A     19.017653  
     346A     19.343079   347A     25.287143   348A     25.374863  

    Final Occupation by Irrep:
              A 
    DOCC [    21 ]

  @DF-RHF Final Energy:  -262.63994485002979

   => Energetics <=

    Nuclear Repulsion Energy =            212.5517311104853775
    One-Electron Energy =                -775.4594096317241565
    Two-Electron Energy =                 300.2677336712089300
    Total Energy =                       -262.6399448500297922

Computation Completed


Properties will be evaluated at   0.000000,   0.000000,   0.000000 [a0]

Properties computed using the SCF density matrix

  Nuclear Dipole Moment: [e a0]
     X: -1425.2045      Y:    41.1737      Z:  -574.6777

  Electronic Dipole Moment: [e a0]
     X:  1425.2045      Y:   -41.1737      Z:   574.6777

  Dipole Moment: [e a0]
     X:     0.0000      Y:    -0.0000      Z:    -0.0000     Total:     0.0000

  Dipole Moment: [D]
     X:     0.0000      Y:    -0.0000      Z:    -0.0000     Total:     0.0000


*** tstop() called on atl1-1-01-013-9-r.pace.gatech.edu at Mon Nov 29 16:11:25 2021
Module time:
	user time   =      19.55 seconds =       0.33 minutes
	system time =       0.58 seconds =       0.01 minutes
	total time  =         11 seconds =       0.18 minutes
Total time:
	user time   =      72.87 seconds =       1.21 minutes
	system time =       2.33 seconds =       0.04 minutes
	total time  =         40 seconds =       0.67 minutes
  Constructing Basis Sets for SAPT...

   => Loading Basis Set <=

    Name: (AUG-CC-PVDZ AUX)
    Role: RIFIT
    Keyword: DF_BASIS_SAPT
    atoms 1-2, 11-12  entry N          line   158 file /storage/home/hhive1/csargent30/data/miniconda3/envs/psi4/share/psi4/basis/aug-cc-pvdz-ri.gbs 
    atoms 3-6, 13-16  entry H          line    30 file /storage/home/hhive1/csargent30/data/miniconda3/envs/psi4/share/psi4/basis/aug-cc-pvdz-ri.gbs 
    atoms 7-10, 17-20 entry C          line   112 file /storage/home/hhive1/csargent30/data/miniconda3/envs/psi4/share/psi4/basis/aug-cc-pvdz-ri.gbs 


  //>>>>>>>>>>>>>>>>>>>>>>>>>>>>>>>>>>>//
  //               SAPT0               //
  //<<<<<<<<<<<<<<<<<<<<<<<<<<<<<<<<<<<//


*** tstart() called on atl1-1-01-013-9-r.pace.gatech.edu
*** at Mon Nov 29 16:11:25 2021

        SAPT0  
    Ed Hohenstein
     6 June 2009

      Orbital Information
  --------------------------
    NSO        =       348
    NMO        =       348
    NRI        =      1048
    NOCC A     =        21
    NOCC B     =        21
    FOCC A     =         6
    FOCC B     =         6
    NVIR A     =       327
    NVIR B     =       327

    Elst10,r            =     0.000003367727 [Eh]
    Exch10              =     0.000000000000 [Eh]
    Exch10 (S^2)        =     0.000000000000 [Eh]

    Iter     Energy [mEh]          dE [mEh]         Residual      Time [s]
       1      -0.00000297       0.000002967       0.020253542             0
       2      -0.00000264      -0.000000330       0.004630574             1
       3      -0.00000288       0.000000245       0.001913304             1
       4      -0.00000293       0.000000050       0.000545479             1
       5      -0.00000293      -0.000000006       0.000304807             2
       6      -0.00000292      -0.000000005       0.000122932             2
       7      -0.00000292       0.000000001       0.000053459             3
       8      -0.00000292       0.000000001       0.000016836             3
       9      -0.00000292      -0.000000000       0.000005200             3
      10      -0.00000292      -0.000000000       0.000001556             4
      11      -0.00000292       0.000000000       0.000000627             4

    CHF Iterations converged


    Iter     Energy [mEh]          dE [mEh]         Residual      Time [s]
       1      -0.00000297       0.000002967       0.020253543             1
       2      -0.00000264      -0.000000330       0.004630574             1
       3      -0.00000288       0.000000245       0.001913304             1
       4      -0.00000293       0.000000050       0.000545479             2
       5      -0.00000293      -0.000000006       0.000304807             2
       6      -0.00000292      -0.000000005       0.000122932             3
       7      -0.00000292       0.000000001       0.000053459             3
       8      -0.00000292       0.000000001       0.000016836             3
       9      -0.00000292      -0.000000000       0.000005200             4
      10      -0.00000292      -0.000000000       0.000001556             5
      11      -0.00000292       0.000000000       0.000000627             5

    CHF Iterations converged

    Ind20,r (A<-B)      =    -0.000000002923 [Eh]
    Ind20,r (B<-A)      =    -0.000000002923 [Eh]
    Ind20,r             =    -0.000000005845 [Eh]
    Exch-Ind20,r (A<-B) =     0.000000000000 [Eh]
    Exch-Ind20,r (B<-A) =     0.000000000000 [Eh]
    Exch-Ind20,r        =     0.000000000000 [Eh]
    Disp20              =    -0.000000614634 [Eh]
    Disp20 (SS)         =    -0.000000307317 [Eh]
    Disp20 (OS)         =    -0.000000307317 [Eh]
    Exch-Disp20         =     0.000000000000 [Eh]
    Exch-Disp20 (SS)    =     0.000000000000 [Eh]
    Exch-Disp20 (OS)    =     0.000000000000 [Eh]

    SAPT Results 
  --------------------------------------------------------------------------------------------------------
    Electrostatics                  0.00336773 [mEh]       0.00211328 [kcal/mol]       0.00884197 [kJ/mol]
      Elst10,r                      0.00336773 [mEh]       0.00211328 [kcal/mol]       0.00884197 [kJ/mol]

    Exchange                        0.00000000 [mEh]       0.00000000 [kcal/mol]       0.00000000 [kJ/mol]
      Exch10                        0.00000000 [mEh]       0.00000000 [kcal/mol]       0.00000000 [kJ/mol]
      Exch10(S^2)                   0.00000000 [mEh]       0.00000000 [kcal/mol]       0.00000000 [kJ/mol]

    Induction                       0.00002157 [mEh]       0.00001353 [kcal/mol]       0.00005663 [kJ/mol]
      Ind20,r                      -0.00000585 [mEh]      -0.00000367 [kcal/mol]      -0.00001535 [kJ/mol]
      Exch-Ind20,r                  0.00000000 [mEh]       0.00000000 [kcal/mol]       0.00000000 [kJ/mol]
      delta HF,r (2)                0.00002741 [mEh]       0.00001720 [kcal/mol]       0.00007197 [kJ/mol]

    Dispersion                     -0.00061463 [mEh]      -0.00038569 [kcal/mol]      -0.00161372 [kJ/mol]
      Disp20                       -0.00061463 [mEh]      -0.00038569 [kcal/mol]      -0.00161372 [kJ/mol]
      Exch-Disp20                   0.00000000 [mEh]       0.00000000 [kcal/mol]       0.00000000 [kJ/mol]
      Disp20 (SS)                  -0.00030732 [mEh]      -0.00019284 [kcal/mol]      -0.00080686 [kJ/mol]
      Disp20 (OS)                  -0.00030732 [mEh]      -0.00019284 [kcal/mol]      -0.00080686 [kJ/mol]
      Exch-Disp20 (SS)              0.00000000 [mEh]       0.00000000 [kcal/mol]       0.00000000 [kJ/mol]
      Exch-Disp20 (OS)              0.00000000 [mEh]       0.00000000 [kcal/mol]       0.00000000 [kJ/mol]

  Total HF                          0.00338929 [mEh]       0.00212681 [kcal/mol]       0.00889859 [kJ/mol]
  Total SAPT0                       0.00277466 [mEh]       0.00174113 [kcal/mol]       0.00728487 [kJ/mol]

  Special recipe for scaled SAPT0 (see Manual):
    Electrostatics sSAPT0           0.00336773 [mEh]       0.00211328 [kcal/mol]       0.00884197 [kJ/mol]
    Exchange sSAPT0                 0.00000000 [mEh]       0.00000000 [kcal/mol]       0.00000000 [kJ/mol]
    Induction sSAPT0                0.00002157 [mEh]       0.00001353 [kcal/mol]       0.00005663 [kJ/mol]
    Dispersion sSAPT0              -0.00061463 [mEh]      -0.00038569 [kcal/mol]      -0.00161372 [kJ/mol]
  Total sSAPT0                      0.00277466 [mEh]       0.00174113 [kcal/mol]       0.00728487 [kJ/mol]
  --------------------------------------------------------------------------------------------------------

*** tstop() called on atl1-1-01-013-9-r.pace.gatech.edu at Mon Nov 29 16:11:54 2021
Module time:
	user time   =      43.61 seconds =       0.73 minutes
	system time =       9.56 seconds =       0.16 minutes
	total time  =         29 seconds =       0.48 minutes
Total time:
	user time   =     116.73 seconds =       1.95 minutes
	system time =      11.90 seconds =       0.20 minutes
	total time  =         69 seconds =       1.15 minutes


Warning! sapt0 does not have an associated derived wavefunction.The returned wavefunction is the dimer SCF wavefunction.


    Psi4 stopped on: Monday, 29 November 2021 04:11PM
    Psi4 wall time for execution: 0:01:09.72

*** Psi4 exiting successfully. Buy a developer a beer!
