
    -----------------------------------------------------------------------
          Psi4: An Open-Source Ab Initio Electronic Structure Package
                               Psi4 1.4.1 release

                         Git: Rev {HEAD} cd00f19


    D. G. A. Smith, L. A. Burns, A. C. Simmonett, R. M. Parrish,
    M. C. Schieber, R. Galvelis, P. Kraus, H. Kruse, R. Di Remigio,
    A. Alenaizan, A. M. James, S. Lehtola, J. P. Misiewicz, M. Scheurer,
    R. A. Shaw, J. B. Schriber, Y. Xie, Z. L. Glick, D. A. Sirianni,
    J. S. O'Brien, J. M. Waldrop, A. Kumar, E. G. Hohenstein,
    B. P. Pritchard, B. R. Brooks, H. F. Schaefer III, A. Yu. Sokolov,
    K. Patkowski, A. E. DePrince III, U. Bozkaya, R. A. King,
    F. A. Evangelista, J. M. Turney, T. D. Crawford, C. D. Sherrill,
    J. Chem. Phys. 152(18) 184108 (2020). https://doi.org/10.1063/5.0006002

                            Additional Code Authors
    E. T. Seidl, C. L. Janssen, E. F. Valeev, M. L. Leininger,
    J. F. Gonthier, R. M. Richard, H. R. McAlexander, M. Saitow, X. Wang,
    P. Verma, and M. H. Lechner

             Previous Authors, Complete List of Code Contributors,
                       and Citations for Specific Modules
    https://github.com/psi4/psi4/blob/master/codemeta.json
    https://github.com/psi4/psi4/graphs/contributors
    http://psicode.org/psi4manual/master/introduction.html#citing-psifour

    -----------------------------------------------------------------------


    Psi4 started on: Monday, 29 November 2021 04:10PM

    Process ID: 45792
    Host:       atl1-1-01-013-8-r.pace.gatech.edu
    PSIDATADIR: /storage/home/hhive1/csargent30/data/miniconda3/envs/psi4/share/psi4
    Memory:     500.0 MiB
    Threads:    2

  ==> Input File <==

--------------------------------------------------------------------------
# PSI4 file produced by CrystaLattE

# Generated from:               pyrazine.xyz
# Psithon input for N-mer:      2mer-0+268
# Number of atoms per monomer:  [10, 10]
# Number of replicas:           2
# COM priority:                 2.170572008808e-05
# Minimum COM separations:      18.970
# Separation priority:          3.795559846638e-05
# Minimum monomer separations:  15.746
# Cutoff priority:              1.275560684106e-06
# Nuclear repulsion energy:     474.3560168886623

memory 7 GB

molecule Dimer_0_268 {
  N           -1.33084758       0.98032658       0.42627037
  N            3.95377333       0.98032658       0.42627037
  H            3.56713674       4.35218569      -0.94230973
  H           -0.94421098       4.35218569      -0.94230973
  H           -0.94421098      -2.39153253       1.79485047
  H            3.56713674      -2.39153253       1.79485047
  C            2.62292576       2.94097974      -0.42627037
  C            0.00000000       2.94097974      -0.42627037
  C            0.00000000      -0.98032658       1.27881112
  C            2.62292576      -0.98032658       1.27881112
--
  N           -1.33084758     -21.13022498      28.64441677
  N            3.95377333     -21.13022498      28.64441677
  H            3.56713674     -17.75836587      27.27583667
  H           -0.94421098     -17.75836587      27.27583667
  H           -0.94421098     -24.50208409      30.01299687
  H            3.56713674     -24.50208409      30.01299687
  C            2.62292576     -19.16957182      27.79187602
  C            0.00000000     -19.16957182      27.79187602
  C            0.00000000     -23.09087814      29.49695752
  C            2.62292576     -23.09087814      29.49695752
units = au
no_com
no_reorient
}

set {
  e_convergence 10
  d_convergence 10
  scf_type df
  mp2_type df
  cc_type df
  freeze_core true
}

energy('sapt0/aug-cc-pvdz')

--------------------------------------------------------------------------

  Memory set to   6.519 GiB by Python driver.

Scratch directory: /tmp/

Scratch directory: /tmp/

  //>>>>>>>>>>>>>>>>>>>>>>>>>>>>>>>>>>>//
  //              Dimer HF             //
  //<<<<<<<<<<<<<<<<<<<<<<<<<<<<<<<<<<<//


*** tstart() called on atl1-1-01-013-8-r.pace.gatech.edu
*** at Mon Nov 29 16:10:41 2021

   => Loading Basis Set <=

    Name: AUG-CC-PVDZ
    Role: ORBITAL
    Keyword: BASIS
    atoms 1-2, 11-12  entry N          line   218 file /storage/home/hhive1/csargent30/data/miniconda3/envs/psi4/share/psi4/basis/aug-cc-pvdz.gbs
    atoms 3-6, 13-16  entry H          line    40 file /storage/home/hhive1/csargent30/data/miniconda3/envs/psi4/share/psi4/basis/aug-cc-pvdz.gbs
    atoms 7-10, 17-20 entry C          line   182 file /storage/home/hhive1/csargent30/data/miniconda3/envs/psi4/share/psi4/basis/aug-cc-pvdz.gbs


         ---------------------------------------------------------
                                   SCF
               by Justin Turney, Rob Parrish, Andy Simmonett
                          and Daniel G. A. Smith
                              RHF Reference
                        2 Threads,   6675 MiB Core
         ---------------------------------------------------------

  ==> Geometry <==

    Molecular point group: c1
    Full point group: C1

    Geometry (in Bohr), charge = 0, multiplicity = 1:

       Center              X                  Y                   Z               Mass
    ------------   -----------------  -----------------  -----------------  -----------------
         N           -1.330847580000     0.980326580000     0.426270370000    14.003074004430
         N            3.953773330000     0.980326580000     0.426270370000    14.003074004430
         H            3.567136740000     4.352185690000    -0.942309730000     1.007825032230
         H           -0.944210980000     4.352185690000    -0.942309730000     1.007825032230
         H           -0.944210980000    -2.391532530000     1.794850470000     1.007825032230
         H            3.567136740000    -2.391532530000     1.794850470000     1.007825032230
         C            2.622925760000     2.940979740000    -0.426270370000    12.000000000000
         C            0.000000000000     2.940979740000    -0.426270370000    12.000000000000
         C            0.000000000000    -0.980326580000     1.278811120000    12.000000000000
         C            2.622925760000    -0.980326580000     1.278811120000    12.000000000000
         N           -1.330847580000   -21.130224980000    28.644416770000    14.003074004430
         N            3.953773330000   -21.130224980000    28.644416770000    14.003074004430
         H            3.567136740000   -17.758365870000    27.275836670000     1.007825032230
         H           -0.944210980000   -17.758365870000    27.275836670000     1.007825032230
         H           -0.944210980000   -24.502084090000    30.012996870000     1.007825032230
         H            3.567136740000   -24.502084090000    30.012996870000     1.007825032230
         C            2.622925760000   -19.169571820000    27.791876020000    12.000000000000
         C            0.000000000000   -19.169571820000    27.791876020000    12.000000000000
         C            0.000000000000   -23.090878140000    29.496957520000    12.000000000000
         C            2.622925760000   -23.090878140000    29.496957520000    12.000000000000

  Running in c1 symmetry.

  Rotational constants: A =      0.06258  B =      0.00059  C =      0.00059 [cm^-1]
  Rotational constants: A =   1876.16953  B =     17.66694  C =     17.57008 [MHz]
  Nuclear repulsion =  474.356016814059103

  Charge       = 0
  Multiplicity = 1
  Electrons    = 84
  Nalpha       = 42
  Nbeta        = 42

  ==> Algorithm <==

  SCF Algorithm Type is DF.
  DIIS enabled.
  MOM disabled.
  Fractional occupation disabled.
  Guess Type is SAD.
  Energy threshold   = 1.00e-10
  Density threshold  = 1.00e-10
  Integral threshold = 1.00e-12

  ==> Primary Basis <==

  Basis Set: AUG-CC-PVDZ
    Blend: AUG-CC-PVDZ
    Number of shells: 148
    Number of basis functions: 348
    Number of Cartesian functions: 372
    Spherical Harmonics?: true
    Max angular momentum: 2

   => Loading Basis Set <=

    Name: (AUG-CC-PVDZ AUX)
    Role: JKFIT
    Keyword: DF_BASIS_SCF
    atoms 1-2, 11-12  entry N          line   212 file /storage/home/hhive1/csargent30/data/miniconda3/envs/psi4/share/psi4/basis/aug-cc-pvdz-jkfit.gbs
    atoms 3-6, 13-16  entry H          line    70 file /storage/home/hhive1/csargent30/data/miniconda3/envs/psi4/share/psi4/basis/aug-cc-pvdz-jkfit.gbs
    atoms 7-10, 17-20 entry C          line   154 file /storage/home/hhive1/csargent30/data/miniconda3/envs/psi4/share/psi4/basis/aug-cc-pvdz-jkfit.gbs

  ==> Integral Setup <==

  ==> DiskDFJK: Density-Fitted J/K Matrices <==

    J tasked:                  Yes
    K tasked:                  Yes
    wK tasked:                  No
    OpenMP threads:              2
    Integrals threads:           2
    Memory [MiB]:             5006
    Algorithm:                Core
    Integral Cache:           SAVE
    Schwarz Cutoff:          1E-12
    Fitting Condition:       1E-10

   => Auxiliary Basis Set <=

  Basis Set: (AUG-CC-PVDZ AUX)
    Blend: AUG-CC-PVDZ-JKFIT
    Number of shells: 432
    Number of basis functions: 1288
    Number of Cartesian functions: 1492
    Spherical Harmonics?: true
    Max angular momentum: 3

  Minimum eigenvalue in the overlap matrix is 9.4887570622E-06.
  Reciprocal condition number of the overlap matrix is 7.4009193248E-07.
    Using symmetric orthogonalization.

  ==> Pre-Iterations <==

  SCF Guess: Superposition of Atomic Densities via on-the-fly atomic UHF (no occupation information).

   -------------------------
    Irrep   Nso     Nmo
   -------------------------
     A        348     348
   -------------------------
    Total     348     348
   -------------------------

  ==> Iterations <==

                           Total Energy        Delta E     RMS |[F,P]|

   @DF-RHF iter SAD:  -524.65046250899752   -5.24650e+02   0.00000e+00
   @DF-RHF iter   1:  -525.07881359896408   -4.28351e-01   1.58371e-03 DIIS
   @DF-RHF iter   2:  -525.25757454474842   -1.78761e-01   5.80770e-04 DIIS
   @DF-RHF iter   3:  -525.27724372557179   -1.96692e-02   1.81373e-04 DIIS
   @DF-RHF iter   4:  -525.27969329179643   -2.44957e-03   5.34026e-05 DIIS
   @DF-RHF iter   5:  -525.27987250656338   -1.79215e-04   1.06853e-05 DIIS
   @DF-RHF iter   6:  -525.27988560781205   -1.31012e-05   3.46868e-06 DIIS
   @DF-RHF iter   7:  -525.27988751272960   -1.90492e-06   9.05326e-07 DIIS
   @DF-RHF iter   8:  -525.27988766051669   -1.47787e-07   1.40369e-07 DIIS
   @DF-RHF iter   9:  -525.27988766448823   -3.97154e-09   2.73995e-08 DIIS
   @DF-RHF iter  10:  -525.27988766462931   -1.41085e-10   8.50546e-09 DIIS
   @DF-RHF iter  11:  -525.27988766463716   -7.84439e-12   3.13892e-09 DIIS
   @DF-RHF iter  12:  -525.27988766463784   -6.82121e-13   4.41898e-10 DIIS
   @DF-RHF iter  13:  -525.27988766463750    3.41061e-13   9.77695e-11 DIIS
  Energy and wave function converged.


  ==> Post-Iterations <==

    Orbital Energies [Eh]
    ---------------------

    Doubly Occupied:

       1A    -15.598209     2A    -15.598209     3A    -15.598190
       4A    -15.598190     5A    -11.274377     6A    -11.274377
       7A    -11.274331     8A    -11.274331     9A    -11.273114
      10A    -11.273114    11A    -11.273105    12A    -11.273105
      13A     -1.313484    14A     -1.313484    15A     -1.224313
      16A     -1.224313    17A     -1.076941    18A     -1.076941
      19A     -0.922800    20A     -0.922800    21A     -0.919420
      22A     -0.919420    23A     -0.760774    24A     -0.760774
      25A     -0.738539    26A     -0.738539    27A     -0.706351
      28A     -0.706351    29A     -0.647825    30A     -0.647825
      31A     -0.580848    32A     -0.580848    33A     -0.574507
      34A     -0.574507    35A     -0.497249    36A     -0.497249
      37A     -0.434425    38A     -0.434425    39A     -0.415992
      40A     -0.415992    41A     -0.360063    42A     -0.360063

    Virtual:

      43A      0.034352    44A      0.034362    45A      0.040587
      46A      0.040610    47A      0.048250    48A      0.048266
      49A      0.058454    50A      0.058477    51A      0.066972
      52A      0.066972    53A      0.099281    54A      0.099281
      55A      0.100809    56A      0.100810    57A      0.114059
      58A      0.114059    59A      0.114811    60A      0.114811
      61A      0.123634    62A      0.123660    63A      0.125186
      64A      0.125187    65A      0.128527    66A      0.128528
      67A      0.132742    68A      0.132742    69A      0.158025
      70A      0.158093    71A      0.160930    72A      0.160958
      73A      0.161179    74A      0.161217    75A      0.163766
      76A      0.163802    77A      0.175040    78A      0.175055
      79A      0.186781    80A      0.186781    81A      0.203764
      82A      0.203765    83A      0.212399    84A      0.212404
      85A      0.250378    86A      0.250378    87A      0.267623
      88A      0.267624    89A      0.277912    90A      0.277925
      91A      0.287676    92A      0.287676    93A      0.293069
      94A      0.293071    95A      0.295597    96A      0.295650
      97A      0.314698    98A      0.314699    99A      0.320318
     100A      0.320318   101A      0.355281   102A      0.355312
     103A      0.357769   104A      0.357770   105A      0.364524
     106A      0.364525   107A      0.382437   108A      0.382457
     109A      0.398743   110A      0.398760   111A      0.409751
     112A      0.409769   113A      0.425312   114A      0.425325
     115A      0.433785   116A      0.433785   117A      0.437047
     118A      0.437098   119A      0.451956   120A      0.451960
     121A      0.471343   122A      0.471350   123A      0.492002
     124A      0.492002   125A      0.504723   126A      0.504723
     127A      0.514773   128A      0.514773   129A      0.524409
     130A      0.524412   131A      0.528524   132A      0.528535
     133A      0.554438   134A      0.554440   135A      0.570396
     136A      0.570400   137A      0.587398   138A      0.587399
     139A      0.591368   140A      0.591369   141A      0.593662
     142A      0.593662   143A      0.608794   144A      0.608794
     145A      0.643383   146A      0.643383   147A      0.644180
     148A      0.644188   149A      0.684998   150A      0.684999
     151A      0.687620   152A      0.687620   153A      0.689792
     154A      0.689795   155A      0.690192   156A      0.690220
     157A      0.694690   158A      0.694692   159A      0.703684
     160A      0.703707   161A      0.746418   162A      0.746422
     163A      0.754678   164A      0.754678   165A      0.766830
     166A      0.766830   167A      0.781268   168A      0.781268
     169A      0.799676   170A      0.799678   171A      0.802570
     172A      0.802573   173A      0.818878   174A      0.818878
     175A      0.830933   176A      0.830933   177A      0.847375
     178A      0.847379   179A      0.880407   180A      0.880407
     181A      0.886272   182A      0.886272   183A      0.894543
     184A      0.894543   185A      0.929132   186A      0.929132
     187A      0.939327   188A      0.939333   189A      0.949165
     190A      0.949173   191A      0.996516   192A      0.996516
     193A      0.998773   194A      0.998773   195A      1.012879
     196A      1.012879   197A      1.033229   198A      1.033238
     199A      1.051056   200A      1.051056   201A      1.089245
     202A      1.089245   203A      1.100308   204A      1.100308
     205A      1.122053   206A      1.122067   207A      1.123907
     208A      1.123907   209A      1.134223   210A      1.134227
     211A      1.158600   212A      1.158607   213A      1.173427
     214A      1.173427   215A      1.235278   216A      1.235281
     217A      1.238667   218A      1.238668   219A      1.309533
     220A      1.309538   221A      1.331011   222A      1.331012
     223A      1.414143   224A      1.414145   225A      1.451389
     226A      1.451391   227A      1.486000   228A      1.486002
     229A      1.487938   230A      1.487939   231A      1.499068
     232A      1.499078   233A      1.502705   234A      1.502710
     235A      1.518113   236A      1.518114   237A      1.572548
     238A      1.572548   239A      1.574051   240A      1.574058
     241A      1.587693   242A      1.587703   243A      1.635843
     244A      1.635845   245A      1.640366   246A      1.640367
     247A      1.648079   248A      1.648087   249A      1.676414
     250A      1.676415   251A      1.716853   252A      1.716853
     253A      1.746459   254A      1.746459   255A      1.754966
     256A      1.754966   257A      1.783623   258A      1.783627
     259A      1.815589   260A      1.815589   261A      1.893185
     262A      1.893185   263A      1.915999   264A      1.916000
     265A      1.964691   266A      1.964691   267A      1.987537
     268A      1.987538   269A      2.031064   270A      2.031065
     271A      2.091410   272A      2.091411   273A      2.100887
     274A      2.100893   275A      2.142816   276A      2.142816
     277A      2.163218   278A      2.163218   279A      2.190350
     280A      2.190350   281A      2.193160   282A      2.193169
     283A      2.200242   284A      2.200243   285A      2.202273
     286A      2.202273   287A      2.227488   288A      2.227488
     289A      2.312623   290A      2.312624   291A      2.355090
     292A      2.355092   293A      2.430820   294A      2.430820
     295A      2.438840   296A      2.438840   297A      2.519241
     298A      2.519242   299A      2.522257   300A      2.522257
     301A      2.584630   302A      2.584631   303A      2.606129
     304A      2.606129   305A      2.665087   306A      2.665087
     307A      2.675272   308A      2.675272   309A      2.686256
     310A      2.686259   311A      2.713843   312A      2.713852
     313A      2.718453   314A      2.718454   315A      2.843877
     316A      2.843877   317A      2.865624   318A      2.865624
     319A      2.939058   320A      2.939060   321A      3.001717
     322A      3.001719   323A      3.017734   324A      3.017735
     325A      3.032048   326A      3.032050   327A      3.093998
     328A      3.094000   329A      3.220163   330A      3.220194
     331A      3.255842   332A      3.255842   333A      3.284741
     334A      3.284745   335A      3.366002   336A      3.366003
     337A      3.413228   338A      3.413231   339A      3.514783
     340A      3.514783   341A      3.590517   342A      3.590518
     343A      3.627631   344A      3.627632   345A      3.977096
     346A      3.977101   347A      4.253348   348A      4.253348

    Final Occupation by Irrep:
              A
    DOCC [    42 ]

  @DF-RHF Final Energy:  -525.27988766463750

   => Energetics <=

    Nuclear Repulsion Energy =            474.3560168140591031
    One-Electron Energy =               -1649.4123884106591049
    Two-Electron Energy =                 649.7764839319625025
    Total Energy =                       -525.2798876646374993

Computation Completed


Properties will be evaluated at   0.000000,   0.000000,   0.000000 [a0]

Properties computed using the SCF density matrix

  Nuclear Dipole Moment: [e a0]
     X:   110.1629      Y:  -846.2957      Z:  1220.9689

  Electronic Dipole Moment: [e a0]
     X:  -110.1629      Y:   846.2957      Z: -1220.9689

  Dipole Moment: [e a0]
     X:     0.0000      Y:     0.0000      Z:    -0.0000     Total:     0.0000

  Dipole Moment: [D]
     X:     0.0000      Y:     0.0000      Z:    -0.0000     Total:     0.0000


*** tstop() called on atl1-1-01-013-8-r.pace.gatech.edu at Mon Nov 29 16:10:55 2021
Module time:
	user time   =      23.90 seconds =       0.40 minutes
	system time =       0.98 seconds =       0.02 minutes
	total time  =         14 seconds =       0.23 minutes
Total time:
	user time   =      23.90 seconds =       0.40 minutes
	system time =       0.98 seconds =       0.02 minutes
	total time  =         14 seconds =       0.23 minutes

  //>>>>>>>>>>>>>>>>>>>>>>>>>>>>>>>>>>>//
  //            Monomer A HF           //
  //<<<<<<<<<<<<<<<<<<<<<<<<<<<<<<<<<<<//


*** tstart() called on atl1-1-01-013-8-r.pace.gatech.edu
*** at Mon Nov 29 16:10:55 2021

   => Loading Basis Set <=

    Name: AUG-CC-PVDZ
    Role: ORBITAL
    Keyword: BASIS
    atoms 1-2, 11-12  entry N          line   218 file /storage/home/hhive1/csargent30/data/miniconda3/envs/psi4/share/psi4/basis/aug-cc-pvdz.gbs
    atoms 3-6, 13-16  entry H          line    40 file /storage/home/hhive1/csargent30/data/miniconda3/envs/psi4/share/psi4/basis/aug-cc-pvdz.gbs
    atoms 7-10, 17-20 entry C          line   182 file /storage/home/hhive1/csargent30/data/miniconda3/envs/psi4/share/psi4/basis/aug-cc-pvdz.gbs


         ---------------------------------------------------------
                                   SCF
               by Justin Turney, Rob Parrish, Andy Simmonett
                          and Daniel G. A. Smith
                              RHF Reference
                        2 Threads,   6675 MiB Core
         ---------------------------------------------------------

  ==> Geometry <==

    Molecular point group: c1
    Full point group: C1

    Geometry (in Bohr), charge = 0, multiplicity = 1:

       Center              X                  Y                   Z               Mass
    ------------   -----------------  -----------------  -----------------  -----------------
         N           -1.330847580000     0.980326580000     0.426270370000    14.003074004430
         N            3.953773330000     0.980326580000     0.426270370000    14.003074004430
         H            3.567136740000     4.352185690000    -0.942309730000     1.007825032230
         H           -0.944210980000     4.352185690000    -0.942309730000     1.007825032230
         H           -0.944210980000    -2.391532530000     1.794850470000     1.007825032230
         H            3.567136740000    -2.391532530000     1.794850470000     1.007825032230
         C            2.622925760000     2.940979740000    -0.426270370000    12.000000000000
         C            0.000000000000     2.940979740000    -0.426270370000    12.000000000000
         C            0.000000000000    -0.980326580000     1.278811120000    12.000000000000
         C            2.622925760000    -0.980326580000     1.278811120000    12.000000000000
      Gh(N)          -1.330847580000   -21.130224980000    28.644416770000    14.003074004430
      Gh(N)           3.953773330000   -21.130224980000    28.644416770000    14.003074004430
      Gh(H)           3.567136740000   -17.758365870000    27.275836670000     1.007825032230
      Gh(H)          -0.944210980000   -17.758365870000    27.275836670000     1.007825032230
      Gh(H)          -0.944210980000   -24.502084090000    30.012996870000     1.007825032230
      Gh(H)           3.567136740000   -24.502084090000    30.012996870000     1.007825032230
      Gh(C)           2.622925760000   -19.169571820000    27.791876020000    12.000000000000
      Gh(C)           0.000000000000   -19.169571820000    27.791876020000    12.000000000000
      Gh(C)           0.000000000000   -23.090878140000    29.496957520000    12.000000000000
      Gh(C)           2.622925760000   -23.090878140000    29.496957520000    12.000000000000

  Running in c1 symmetry.

  Rotational constants: A =      0.06258  B =      0.00059  C =      0.00059 [cm^-1]
  Rotational constants: A =   1876.16953  B =     17.66694  C =     17.57008 [MHz]
  Nuclear repulsion =  212.551731110485349

  Charge       = 0
  Multiplicity = 1
  Electrons    = 42
  Nalpha       = 21
  Nbeta        = 21

  ==> Algorithm <==

  SCF Algorithm Type is DF.
  DIIS enabled.
  MOM disabled.
  Fractional occupation disabled.
  Guess Type is SAD.
  Energy threshold   = 1.00e-10
  Density threshold  = 1.00e-10
  Integral threshold = 1.00e-12

  ==> Primary Basis <==

  Basis Set: AUG-CC-PVDZ
    Blend: AUG-CC-PVDZ
    Number of shells: 148
    Number of basis functions: 348
    Number of Cartesian functions: 372
    Spherical Harmonics?: true
    Max angular momentum: 2

   => Loading Basis Set <=

    Name: (AUG-CC-PVDZ AUX)
    Role: JKFIT
    Keyword: DF_BASIS_SCF
    atoms 1-2, 11-12  entry N          line   212 file /storage/home/hhive1/csargent30/data/miniconda3/envs/psi4/share/psi4/basis/aug-cc-pvdz-jkfit.gbs
    atoms 3-6, 13-16  entry H          line    70 file /storage/home/hhive1/csargent30/data/miniconda3/envs/psi4/share/psi4/basis/aug-cc-pvdz-jkfit.gbs
    atoms 7-10, 17-20 entry C          line   154 file /storage/home/hhive1/csargent30/data/miniconda3/envs/psi4/share/psi4/basis/aug-cc-pvdz-jkfit.gbs

  ==> Integral Setup <==

  ==> DiskDFJK: Density-Fitted J/K Matrices <==

    J tasked:                  Yes
    K tasked:                  Yes
    wK tasked:                  No
    OpenMP threads:              2
    Integrals threads:           2
    Memory [MiB]:             5006
    Algorithm:                Core
    Integral Cache:           LOAD
    Schwarz Cutoff:          1E-12
    Fitting Condition:       1E-10

   => Auxiliary Basis Set <=

  Basis Set: (AUG-CC-PVDZ AUX)
    Blend: AUG-CC-PVDZ-JKFIT
    Number of shells: 432
    Number of basis functions: 1288
    Number of Cartesian functions: 1492
    Spherical Harmonics?: true
    Max angular momentum: 3

  Minimum eigenvalue in the overlap matrix is 9.4887570622E-06.
  Reciprocal condition number of the overlap matrix is 7.4009193248E-07.
    Using symmetric orthogonalization.

  ==> Pre-Iterations <==

  SCF Guess: Superposition of Atomic Densities via on-the-fly atomic UHF (no occupation information).

   -------------------------
    Irrep   Nso     Nmo
   -------------------------
     A        348     348
   -------------------------
    Total     348     348
   -------------------------

  ==> Iterations <==

                           Total Energy        Delta E     RMS |[F,P]|

   @DF-RHF iter SAD:  -262.32523125853288   -2.62325e+02   0.00000e+00
   @DF-RHF iter   1:  -262.53940797956807   -2.14177e-01   1.11985e-03 DIIS
   @DF-RHF iter   2:  -262.62878837248860   -8.93804e-02   4.10664e-04 DIIS
   @DF-RHF iter   3:  -262.63862291704646   -9.83454e-03   1.28248e-04 DIIS
   @DF-RHF iter   4:  -262.63984767030621   -1.22475e-03   3.77599e-05 DIIS
   @DF-RHF iter   5:  -262.63993727076831   -8.96005e-05   7.55558e-06 DIIS
   @DF-RHF iter   6:  -262.63994382102823   -6.55026e-06   2.45264e-06 DIIS
   @DF-RHF iter   7:  -262.63994477340174   -9.52374e-07   6.40130e-07 DIIS
   @DF-RHF iter   8:  -262.63994484728914   -7.38874e-08   9.91693e-08 DIIS
   @DF-RHF iter   9:  -262.63994484927491   -1.98577e-09   1.88228e-08 DIIS
   @DF-RHF iter  10:  -262.63994484934653   -7.16227e-11   3.19151e-09 DIIS
   @DF-RHF iter  11:  -262.63994484934813   -1.59162e-12   5.22317e-10 DIIS
   @DF-RHF iter  12:  -262.63994484934796    1.70530e-13   9.54359e-11 DIIS
  Energy and wave function converged.


  ==> Post-Iterations <==

    Orbital Energies [Eh]
    ---------------------

    Doubly Occupied:

       1A    -15.598072     2A    -15.598053     3A    -11.274239
       4A    -11.274194     5A    -11.272975     6A    -11.272969
       7A     -1.313347     8A     -1.224176     9A     -1.076803
      10A     -0.922662    11A     -0.919282    12A     -0.760637
      13A     -0.738402    14A     -0.706214    15A     -0.647687
      16A     -0.580711    17A     -0.574369    18A     -0.497113
      19A     -0.434288    20A     -0.415855    21A     -0.359924

    Virtual:

      22A      0.022221    23A      0.034497    24A      0.039293
      25A      0.040738    26A      0.040978    27A      0.048383
      28A      0.058589    29A      0.058651    30A      0.067113
      31A      0.079461    32A      0.084832    33A      0.099419
      34A      0.100948    35A      0.103790    36A      0.108298
      37A      0.108646    38A      0.114201    39A      0.114951
      40A      0.122278    41A      0.123776    42A      0.125322
      43A      0.125373    44A      0.128661    45A      0.130726
      46A      0.132889    47A      0.133939    48A      0.151900
      49A      0.152820    50A      0.158199    51A      0.159130
      52A      0.161084    53A      0.161326    54A      0.163914
      55A      0.175179    56A      0.176537    57A      0.186918
      58A      0.197592    59A      0.203689    60A      0.203908
      61A      0.206442    62A      0.212538    63A      0.222166
      64A      0.233405    65A      0.239231    66A      0.250517
      67A      0.255007    68A      0.267756    69A      0.270565
      70A      0.278057    71A      0.287812    72A      0.293207
      73A      0.295749    74A      0.302105    75A      0.314832
      76A      0.320429    77A      0.320457    78A      0.327947
      79A      0.331086    80A      0.343911    81A      0.355428
      82A      0.357908    83A      0.364661    84A      0.380287
      85A      0.382583    86A      0.385419    87A      0.398891
      88A      0.401061    89A      0.409895    90A      0.419061
      91A      0.424732    92A      0.425453    93A      0.433925
      94A      0.437212    95A      0.441718    96A      0.452092
      97A      0.460442    98A      0.460888    99A      0.471483
     100A      0.475871   101A      0.478606   102A      0.492140
     103A      0.504862   104A      0.507607   105A      0.514914
     106A      0.523556   107A      0.524547   108A      0.528668
     109A      0.535515   110A      0.554577   111A      0.557632
     112A      0.561298   113A      0.564280   114A      0.570535
     115A      0.581693   116A      0.587535   117A      0.591506
     118A      0.593799   119A      0.595797   120A      0.608929
     121A      0.614926   122A      0.619946   123A      0.636149
     124A      0.643517   125A      0.644321   126A      0.649139
     127A      0.651274   128A      0.679200   129A      0.685104
     130A      0.685136   131A      0.687758   132A      0.689932
     133A      0.690342   134A      0.694828   135A      0.703830
     136A      0.719673   137A      0.728174   138A      0.746557
     139A      0.746572   140A      0.754817   141A      0.766965
     142A      0.775465   143A      0.781406   144A      0.793417
     145A      0.799815   146A      0.802710   147A      0.810879
     148A      0.811763   149A      0.819016   150A      0.824539
     151A      0.831071   152A      0.847513   153A      0.847848
     154A      0.848971   155A      0.868390   156A      0.880544
     157A      0.886410   158A      0.887932   159A      0.894682
     160A      0.905888   161A      0.928898   162A      0.929272
     163A      0.939466   164A      0.947477   165A      0.949307
     166A      0.970563   167A      0.976721   168A      0.986425
     169A      0.996652   170A      0.998908   171A      1.013015
     172A      1.032205   173A      1.033370   174A      1.046714
     175A      1.051194   176A      1.076049   177A      1.089381
     178A      1.090063   179A      1.100445   180A      1.122199
     181A      1.124044   182A      1.130450   183A      1.134362
     184A      1.140050   185A      1.158741   186A      1.168372
     187A      1.170460   188A      1.173565   189A      1.191994
     190A      1.193026   191A      1.200258   192A      1.222102
     193A      1.235416   194A      1.238804   195A      1.250813
     196A      1.307343   197A      1.309674   198A      1.318047
     199A      1.326199   200A      1.329396   201A      1.331148
     202A      1.346594   203A      1.388999   204A      1.414282
     205A      1.448176   206A      1.451526   207A      1.455245
     208A      1.478919   209A      1.486137   210A      1.486991
     211A      1.488075   212A      1.499211   213A      1.502846
     214A      1.518252   215A      1.572686   216A      1.574192
     217A      1.587836   218A      1.635982   219A      1.640505
     220A      1.648219   221A      1.659027   222A      1.676552
     223A      1.697852   224A      1.716991   225A      1.746597
     226A      1.755104   227A      1.783762   228A      1.815727
     229A      1.893323   230A      1.916137   231A      1.964829
     232A      1.987674   233A      2.031202   234A      2.070013
     235A      2.091548   236A      2.101028   237A      2.102550
     238A      2.119229   239A      2.142953   240A      2.156462
     241A      2.158976   242A      2.163356   243A      2.190488
     244A      2.193301   245A      2.194646   246A      2.200380
     247A      2.202410   248A      2.227626   249A      2.234560
     250A      2.240989   251A      2.249446   252A      2.309801
     253A      2.312761   254A      2.319333   255A      2.355229
     256A      2.384592   257A      2.418997   258A      2.430957
     259A      2.435201   260A      2.437953   261A      2.438977
     262A      2.472463   263A      2.486511   264A      2.498108
     265A      2.519379   266A      2.522395   267A      2.524854
     268A      2.545782   269A      2.568114   270A      2.584766
     271A      2.592159   272A      2.606266   273A      2.625760
     274A      2.665224   275A      2.675409   276A      2.686395
     277A      2.713985   278A      2.716685   279A      2.718591
     280A      2.726438   281A      2.767721   282A      2.844014
     283A      2.865761   284A      2.903824   285A      2.939196
     286A      2.947015   287A      2.955539   288A      2.973129
     289A      3.001855   290A      3.017872   291A      3.032186
     292A      3.058118   293A      3.065017   294A      3.094137
     295A      3.113656   296A      3.220316   297A      3.245516
     298A      3.255980   299A      3.284880   300A      3.289470
     301A      3.321749   302A      3.337530   303A      3.340275
     304A      3.348447   305A      3.351172   306A      3.366140
     307A      3.412418   308A      3.413367   309A      3.470574
     310A      3.501773   311A      3.514920   312A      3.521184
     313A      3.590655   314A      3.604258   315A      3.605465
     316A      3.627769   317A      3.700305   318A      3.818744
     319A      3.830508   320A      3.940790   321A      3.968916
     322A      3.977236   323A      4.011222   324A      4.194578
     325A      4.242070   326A      4.253485   327A      4.441809
     328A      4.546650   329A      4.579097   330A      4.867460
     331A      4.975963   332A      5.057673   333A      5.261532
     334A      5.316359   335A      5.630018   336A      5.691145
     337A      5.826969   338A      5.952452   339A      6.283648
     340A      6.306709   341A      6.453586   342A      6.631020
     343A     18.125536   344A     18.207798   345A     19.017394
     346A     19.342819   347A     25.286883   348A     25.374603

    Final Occupation by Irrep:
              A
    DOCC [    21 ]

  @DF-RHF Final Energy:  -262.63994484934796

   => Energetics <=

    Nuclear Repulsion Energy =            212.5517311104853491
    One-Electron Energy =                -775.4594096210880707
    Two-Electron Energy =                 300.2677336612547947
    Total Energy =                       -262.6399448493479554

Computation Completed


Properties will be evaluated at   0.000000,   0.000000,   0.000000 [a0]

Properties computed using the SCF density matrix

  Nuclear Dipole Moment: [e a0]
     X:    55.0814      Y:    41.1737      Z:    17.9034

  Electronic Dipole Moment: [e a0]
     X:   -55.0814      Y:   -41.1737      Z:   -17.9034

  Dipole Moment: [e a0]
     X:     0.0000      Y:     0.0000      Z:    -0.0000     Total:     0.0000

  Dipole Moment: [D]
     X:     0.0000      Y:     0.0000      Z:    -0.0000     Total:     0.0000


*** tstop() called on atl1-1-01-013-8-r.pace.gatech.edu at Mon Nov 29 16:11:03 2021
Module time:
	user time   =      15.26 seconds =       0.25 minutes
	system time =       0.47 seconds =       0.01 minutes
	total time  =          8 seconds =       0.13 minutes
Total time:
	user time   =      39.17 seconds =       0.65 minutes
	system time =       1.45 seconds =       0.02 minutes
	total time  =         22 seconds =       0.37 minutes

  //>>>>>>>>>>>>>>>>>>>>>>>>>>>>>>>>>>>//
  //            Monomer B HF           //
  //<<<<<<<<<<<<<<<<<<<<<<<<<<<<<<<<<<<//


*** tstart() called on atl1-1-01-013-8-r.pace.gatech.edu
*** at Mon Nov 29 16:11:03 2021

   => Loading Basis Set <=

    Name: AUG-CC-PVDZ
    Role: ORBITAL
    Keyword: BASIS
    atoms 1-2, 11-12  entry N          line   218 file /storage/home/hhive1/csargent30/data/miniconda3/envs/psi4/share/psi4/basis/aug-cc-pvdz.gbs
    atoms 3-6, 13-16  entry H          line    40 file /storage/home/hhive1/csargent30/data/miniconda3/envs/psi4/share/psi4/basis/aug-cc-pvdz.gbs
    atoms 7-10, 17-20 entry C          line   182 file /storage/home/hhive1/csargent30/data/miniconda3/envs/psi4/share/psi4/basis/aug-cc-pvdz.gbs


         ---------------------------------------------------------
                                   SCF
               by Justin Turney, Rob Parrish, Andy Simmonett
                          and Daniel G. A. Smith
                              RHF Reference
                        2 Threads,   6675 MiB Core
         ---------------------------------------------------------

  ==> Geometry <==

    Molecular point group: c1
    Full point group: C1

    Geometry (in Bohr), charge = 0, multiplicity = 1:

       Center              X                  Y                   Z               Mass
    ------------   -----------------  -----------------  -----------------  -----------------
      Gh(N)          -1.330847580000     0.980326580000     0.426270370000    14.003074004430
      Gh(N)           3.953773330000     0.980326580000     0.426270370000    14.003074004430
      Gh(H)           3.567136740000     4.352185690000    -0.942309730000     1.007825032230
      Gh(H)          -0.944210980000     4.352185690000    -0.942309730000     1.007825032230
      Gh(H)          -0.944210980000    -2.391532530000     1.794850470000     1.007825032230
      Gh(H)           3.567136740000    -2.391532530000     1.794850470000     1.007825032230
      Gh(C)           2.622925760000     2.940979740000    -0.426270370000    12.000000000000
      Gh(C)           0.000000000000     2.940979740000    -0.426270370000    12.000000000000
      Gh(C)           0.000000000000    -0.980326580000     1.278811120000    12.000000000000
      Gh(C)           2.622925760000    -0.980326580000     1.278811120000    12.000000000000
         N           -1.330847580000   -21.130224980000    28.644416770000    14.003074004430
         N            3.953773330000   -21.130224980000    28.644416770000    14.003074004430
         H            3.567136740000   -17.758365870000    27.275836670000     1.007825032230
         H           -0.944210980000   -17.758365870000    27.275836670000     1.007825032230
         H           -0.944210980000   -24.502084090000    30.012996870000     1.007825032230
         H            3.567136740000   -24.502084090000    30.012996870000     1.007825032230
         C            2.622925760000   -19.169571820000    27.791876020000    12.000000000000
         C            0.000000000000   -19.169571820000    27.791876020000    12.000000000000
         C            0.000000000000   -23.090878140000    29.496957520000    12.000000000000
         C            2.622925760000   -23.090878140000    29.496957520000    12.000000000000

  Running in c1 symmetry.

  Rotational constants: A =      0.06258  B =      0.00059  C =      0.00059 [cm^-1]
  Rotational constants: A =   1876.16953  B =     17.66694  C =     17.57008 [MHz]
  Nuclear repulsion =  212.551731042300560

  Charge       = 0
  Multiplicity = 1
  Electrons    = 42
  Nalpha       = 21
  Nbeta        = 21

  ==> Algorithm <==

  SCF Algorithm Type is DF.
  DIIS enabled.
  MOM disabled.
  Fractional occupation disabled.
  Guess Type is SAD.
  Energy threshold   = 1.00e-10
  Density threshold  = 1.00e-10
  Integral threshold = 1.00e-12

  ==> Primary Basis <==

  Basis Set: AUG-CC-PVDZ
    Blend: AUG-CC-PVDZ
    Number of shells: 148
    Number of basis functions: 348
    Number of Cartesian functions: 372
    Spherical Harmonics?: true
    Max angular momentum: 2

   => Loading Basis Set <=

    Name: (AUG-CC-PVDZ AUX)
    Role: JKFIT
    Keyword: DF_BASIS_SCF
    atoms 1-2, 11-12  entry N          line   212 file /storage/home/hhive1/csargent30/data/miniconda3/envs/psi4/share/psi4/basis/aug-cc-pvdz-jkfit.gbs
    atoms 3-6, 13-16  entry H          line    70 file /storage/home/hhive1/csargent30/data/miniconda3/envs/psi4/share/psi4/basis/aug-cc-pvdz-jkfit.gbs
    atoms 7-10, 17-20 entry C          line   154 file /storage/home/hhive1/csargent30/data/miniconda3/envs/psi4/share/psi4/basis/aug-cc-pvdz-jkfit.gbs

  ==> Integral Setup <==

  ==> DiskDFJK: Density-Fitted J/K Matrices <==

    J tasked:                  Yes
    K tasked:                  Yes
    wK tasked:                  No
    OpenMP threads:              2
    Integrals threads:           2
    Memory [MiB]:             5006
    Algorithm:                Core
    Integral Cache:           LOAD
    Schwarz Cutoff:          1E-12
    Fitting Condition:       1E-10

   => Auxiliary Basis Set <=

  Basis Set: (AUG-CC-PVDZ AUX)
    Blend: AUG-CC-PVDZ-JKFIT
    Number of shells: 432
    Number of basis functions: 1288
    Number of Cartesian functions: 1492
    Spherical Harmonics?: true
    Max angular momentum: 3

  Minimum eigenvalue in the overlap matrix is 9.4887570622E-06.
  Reciprocal condition number of the overlap matrix is 7.4009193248E-07.
    Using symmetric orthogonalization.

  ==> Pre-Iterations <==

  SCF Guess: Superposition of Atomic Densities via on-the-fly atomic UHF (no occupation information).

   -------------------------
    Irrep   Nso     Nmo
   -------------------------
     A        348     348
   -------------------------
    Total     348     348
   -------------------------

  ==> Iterations <==

                           Total Energy        Delta E     RMS |[F,P]|

   @DF-RHF iter SAD:  -262.32523125045100   -2.62325e+02   0.00000e+00
   @DF-RHF iter   1:  -262.53940797765011   -2.14177e-01   1.11985e-03 DIIS
   @DF-RHF iter   2:  -262.62878837044468   -8.93804e-02   4.10664e-04 DIIS
   @DF-RHF iter   3:  -262.63862291495417   -9.83454e-03   1.28248e-04 DIIS
   @DF-RHF iter   4:  -262.63984766821528   -1.22475e-03   3.77599e-05 DIIS
   @DF-RHF iter   5:  -262.63993726867699   -8.96005e-05   7.55558e-06 DIIS
   @DF-RHF iter   6:  -262.63994381893758   -6.55026e-06   2.45264e-06 DIIS
   @DF-RHF iter   7:  -262.63994477131001   -9.52372e-07   6.40130e-07 DIIS
   @DF-RHF iter   8:  -262.63994484519839   -7.38884e-08   9.91693e-08 DIIS
   @DF-RHF iter   9:  -262.63994484718415   -1.98577e-09   1.88228e-08 DIIS
   @DF-RHF iter  10:  -262.63994484725561   -7.14522e-11   3.19151e-09 DIIS
   @DF-RHF iter  11:  -262.63994484725646   -8.52651e-13   5.22317e-10 DIIS
   @DF-RHF iter  12:  -262.63994484725737   -9.09495e-13   9.54366e-11 DIIS
  Energy and wave function converged.


  ==> Post-Iterations <==

    Orbital Energies [Eh]
    ---------------------

    Doubly Occupied:

       1A    -15.598072     2A    -15.598053     3A    -11.274239
       4A    -11.274194     5A    -11.272975     6A    -11.272969
       7A     -1.313347     8A     -1.224176     9A     -1.076803
      10A     -0.922662    11A     -0.919282    12A     -0.760637
      13A     -0.738402    14A     -0.706214    15A     -0.647687
      16A     -0.580711    17A     -0.574369    18A     -0.497113
      19A     -0.434288    20A     -0.415855    21A     -0.359924

    Virtual:

      22A      0.022221    23A      0.034497    24A      0.039293
      25A      0.040738    26A      0.040978    27A      0.048383
      28A      0.058589    29A      0.058651    30A      0.067113
      31A      0.079461    32A      0.084832    33A      0.099419
      34A      0.100948    35A      0.103790    36A      0.108298
      37A      0.108646    38A      0.114201    39A      0.114951
      40A      0.122278    41A      0.123776    42A      0.125322
      43A      0.125373    44A      0.128661    45A      0.130726
      46A      0.132889    47A      0.133939    48A      0.151900
      49A      0.152820    50A      0.158199    51A      0.159130
      52A      0.161084    53A      0.161326    54A      0.163914
      55A      0.175179    56A      0.176537    57A      0.186918
      58A      0.197592    59A      0.203689    60A      0.203908
      61A      0.206442    62A      0.212538    63A      0.222166
      64A      0.233405    65A      0.239231    66A      0.250517
      67A      0.255007    68A      0.267756    69A      0.270565
      70A      0.278056    71A      0.287812    72A      0.293207
      73A      0.295749    74A      0.302105    75A      0.314832
      76A      0.320429    77A      0.320457    78A      0.327947
      79A      0.331086    80A      0.343911    81A      0.355428
      82A      0.357908    83A      0.364661    84A      0.380287
      85A      0.382583    86A      0.385419    87A      0.398891
      88A      0.401061    89A      0.409895    90A      0.419061
      91A      0.424732    92A      0.425453    93A      0.433925
      94A      0.437212    95A      0.441718    96A      0.452092
      97A      0.460442    98A      0.460888    99A      0.471483
     100A      0.475871   101A      0.478606   102A      0.492140
     103A      0.504862   104A      0.507607   105A      0.514914
     106A      0.523556   107A      0.524547   108A      0.528668
     109A      0.535515   110A      0.554577   111A      0.557632
     112A      0.561298   113A      0.564280   114A      0.570535
     115A      0.581693   116A      0.587535   117A      0.591506
     118A      0.593799   119A      0.595797   120A      0.608929
     121A      0.614926   122A      0.619946   123A      0.636149
     124A      0.643517   125A      0.644321   126A      0.649139
     127A      0.651274   128A      0.679200   129A      0.685104
     130A      0.685136   131A      0.687758   132A      0.689932
     133A      0.690342   134A      0.694828   135A      0.703829
     136A      0.719673   137A      0.728174   138A      0.746557
     139A      0.746572   140A      0.754817   141A      0.766965
     142A      0.775465   143A      0.781406   144A      0.793417
     145A      0.799815   146A      0.802710   147A      0.810879
     148A      0.811763   149A      0.819016   150A      0.824539
     151A      0.831071   152A      0.847513   153A      0.847848
     154A      0.848971   155A      0.868390   156A      0.880544
     157A      0.886410   158A      0.887932   159A      0.894682
     160A      0.905888   161A      0.928898   162A      0.929272
     163A      0.939466   164A      0.947477   165A      0.949307
     166A      0.970563   167A      0.976721   168A      0.986425
     169A      0.996652   170A      0.998908   171A      1.013015
     172A      1.032205   173A      1.033370   174A      1.046714
     175A      1.051194   176A      1.076049   177A      1.089381
     178A      1.090063   179A      1.100445   180A      1.122199
     181A      1.124044   182A      1.130450   183A      1.134362
     184A      1.140050   185A      1.158740   186A      1.168372
     187A      1.170460   188A      1.173565   189A      1.191994
     190A      1.193026   191A      1.200258   192A      1.222102
     193A      1.235416   194A      1.238804   195A      1.250813
     196A      1.307343   197A      1.309674   198A      1.318047
     199A      1.326199   200A      1.329396   201A      1.331148
     202A      1.346594   203A      1.388999   204A      1.414282
     205A      1.448176   206A      1.451526   207A      1.455245
     208A      1.478919   209A      1.486137   210A      1.486991
     211A      1.488075   212A      1.499211   213A      1.502846
     214A      1.518252   215A      1.572686   216A      1.574192
     217A      1.587836   218A      1.635982   219A      1.640505
     220A      1.648219   221A      1.659027   222A      1.676552
     223A      1.697852   224A      1.716991   225A      1.746597
     226A      1.755104   227A      1.783762   228A      1.815727
     229A      1.893323   230A      1.916137   231A      1.964829
     232A      1.987674   233A      2.031202   234A      2.070013
     235A      2.091548   236A      2.101028   237A      2.102550
     238A      2.119229   239A      2.142953   240A      2.156462
     241A      2.158976   242A      2.163355   243A      2.190488
     244A      2.193301   245A      2.194646   246A      2.200380
     247A      2.202410   248A      2.227626   249A      2.234560
     250A      2.240989   251A      2.249446   252A      2.309801
     253A      2.312761   254A      2.319333   255A      2.355229
     256A      2.384592   257A      2.418997   258A      2.430957
     259A      2.435201   260A      2.437953   261A      2.438977
     262A      2.472463   263A      2.486511   264A      2.498108
     265A      2.519379   266A      2.522395   267A      2.524854
     268A      2.545782   269A      2.568114   270A      2.584766
     271A      2.592159   272A      2.606266   273A      2.625760
     274A      2.665224   275A      2.675409   276A      2.686395
     277A      2.713985   278A      2.716685   279A      2.718591
     280A      2.726438   281A      2.767721   282A      2.844014
     283A      2.865761   284A      2.903824   285A      2.939196
     286A      2.947015   287A      2.955539   288A      2.973129
     289A      3.001855   290A      3.017872   291A      3.032186
     292A      3.058118   293A      3.065017   294A      3.094137
     295A      3.113656   296A      3.220316   297A      3.245516
     298A      3.255980   299A      3.284880   300A      3.289470
     301A      3.321749   302A      3.337530   303A      3.340275
     304A      3.348447   305A      3.351172   306A      3.366140
     307A      3.412418   308A      3.413367   309A      3.470574
     310A      3.501773   311A      3.514920   312A      3.521184
     313A      3.590655   314A      3.604258   315A      3.605465
     316A      3.627769   317A      3.700305   318A      3.818744
     319A      3.830508   320A      3.940790   321A      3.968916
     322A      3.977236   323A      4.011222   324A      4.194578
     325A      4.242070   326A      4.253485   327A      4.441809
     328A      4.546650   329A      4.579097   330A      4.867460
     331A      4.975963   332A      5.057673   333A      5.261532
     334A      5.316359   335A      5.630018   336A      5.691145
     337A      5.826969   338A      5.952452   339A      6.283648
     340A      6.306709   341A      6.453586   342A      6.631020
     343A     18.125536   344A     18.207798   345A     19.017394
     346A     19.342819   347A     25.286883   348A     25.374603

    Final Occupation by Irrep:
              A
    DOCC [    21 ]

  @DF-RHF Final Energy:  -262.63994484725737

   => Energetics <=

    Nuclear Repulsion Energy =            212.5517310423005597
    One-Electron Energy =                -775.4594094835296119
    Two-Electron Energy =                 300.2677335939717409
    Total Energy =                       -262.6399448472573681

Computation Completed


Properties will be evaluated at   0.000000,   0.000000,   0.000000 [a0]

Properties computed using the SCF density matrix

  Nuclear Dipole Moment: [e a0]
     X:    55.0814      Y:  -887.4694      Z:  1203.0655

  Electronic Dipole Moment: [e a0]
     X:   -55.0814      Y:   887.4694      Z: -1203.0655

  Dipole Moment: [e a0]
     X:     0.0000      Y:    -0.0000      Z:     0.0000     Total:     0.0000

  Dipole Moment: [D]
     X:     0.0000      Y:    -0.0000      Z:     0.0000     Total:     0.0000


*** tstop() called on atl1-1-01-013-8-r.pace.gatech.edu at Mon Nov 29 16:11:12 2021
Module time:
	user time   =      15.16 seconds =       0.25 minutes
	system time =       0.48 seconds =       0.01 minutes
	total time  =          9 seconds =       0.15 minutes
Total time:
	user time   =      54.34 seconds =       0.91 minutes
	system time =       1.93 seconds =       0.03 minutes
	total time  =         31 seconds =       0.52 minutes
  Constructing Basis Sets for SAPT...

   => Loading Basis Set <=

    Name: (AUG-CC-PVDZ AUX)
    Role: RIFIT
    Keyword: DF_BASIS_SAPT
    atoms 1-2, 11-12  entry N          line   158 file /storage/home/hhive1/csargent30/data/miniconda3/envs/psi4/share/psi4/basis/aug-cc-pvdz-ri.gbs
    atoms 3-6, 13-16  entry H          line    30 file /storage/home/hhive1/csargent30/data/miniconda3/envs/psi4/share/psi4/basis/aug-cc-pvdz-ri.gbs
    atoms 7-10, 17-20 entry C          line   112 file /storage/home/hhive1/csargent30/data/miniconda3/envs/psi4/share/psi4/basis/aug-cc-pvdz-ri.gbs


  //>>>>>>>>>>>>>>>>>>>>>>>>>>>>>>>>>>>//
  //               SAPT0               //
  //<<<<<<<<<<<<<<<<<<<<<<<<<<<<<<<<<<<//


*** tstart() called on atl1-1-01-013-8-r.pace.gatech.edu
*** at Mon Nov 29 16:11:12 2021

        SAPT0
    Ed Hohenstein
     6 June 2009

      Orbital Information
  --------------------------
    NSO        =       348
    NMO        =       348
    NRI        =      1048
    NOCC A     =        21
    NOCC B     =        21
    FOCC A     =         6
    FOCC B     =         6
    NVIR A     =       327
    NVIR B     =       327

    Elst10,r            =     0.000002045180 [Eh]
    Exch10              =     0.000000000000 [Eh]
    Exch10 (S^2)        =     0.000000000000 [Eh]

    Iter     Energy [mEh]          dE [mEh]         Residual      Time [s]
       1      -0.00000416       0.000004163       0.021495897             1
       2      -0.00000369      -0.000000477       0.004599938             1
       3      -0.00000394       0.000000252       0.002470217             1
       4      -0.00000405       0.000000109       0.000681250             2
       5      -0.00000402      -0.000000029       0.000277833             2
       6      -0.00000402       0.000000002       0.000092146             3
       7      -0.00000402       0.000000001       0.000033959             3
       8      -0.00000402       0.000000000       0.000007656             3
       9      -0.00000402      -0.000000000       0.000002117             4
      10      -0.00000402       0.000000000       0.000000920             4

    CHF Iterations converged


    Iter     Energy [mEh]          dE [mEh]         Residual      Time [s]
       1      -0.00000416       0.000004163       0.021495896             0
       2      -0.00000369      -0.000000477       0.004599938             1
       3      -0.00000394       0.000000252       0.002470217             1
       4      -0.00000405       0.000000109       0.000681250             1
       5      -0.00000402      -0.000000029       0.000277833             2
       6      -0.00000402       0.000000002       0.000092146             2
       7      -0.00000402       0.000000001       0.000033959             3
       8      -0.00000402       0.000000000       0.000007656             3
       9      -0.00000402      -0.000000000       0.000002117             3
      10      -0.00000402       0.000000000       0.000000920             4

    CHF Iterations converged

    Ind20,r (A<-B)      =    -0.000000004022 [Eh]
    Ind20,r (B<-A)      =    -0.000000004022 [Eh]
    Ind20,r             =    -0.000000008043 [Eh]
    Exch-Ind20,r (A<-B) =     0.000000000000 [Eh]
    Exch-Ind20,r (B<-A) =     0.000000000000 [Eh]
    Exch-Ind20,r        =     0.000000000000 [Eh]
    Disp20              =    -0.000000881433 [Eh]
    Disp20 (SS)         =    -0.000000440717 [Eh]
    Disp20 (OS)         =    -0.000000440717 [Eh]
    Exch-Disp20         =     0.000000000000 [Eh]
    Exch-Disp20 (SS)    =     0.000000000000 [Eh]
    Exch-Disp20 (OS)    =     0.000000000000 [Eh]

    SAPT Results
  --------------------------------------------------------------------------------------------------------
    Electrostatics                  0.00204518 [mEh]       0.00128337 [kcal/mol]       0.00536962 [kJ/mol]
      Elst10,r                      0.00204518 [mEh]       0.00128337 [kcal/mol]       0.00536962 [kJ/mol]

    Exchange                        0.00000000 [mEh]       0.00000000 [kcal/mol]       0.00000000 [kJ/mol]
      Exch10                        0.00000000 [mEh]       0.00000000 [kcal/mol]       0.00000000 [kJ/mol]
      Exch10(S^2)                   0.00000000 [mEh]       0.00000000 [kcal/mol]       0.00000000 [kJ/mol]

    Induction                      -0.00001321 [mEh]      -0.00000829 [kcal/mol]      -0.00003469 [kJ/mol]
      Ind20,r                      -0.00000804 [mEh]      -0.00000505 [kcal/mol]      -0.00002112 [kJ/mol]
      Exch-Ind20,r                  0.00000000 [mEh]       0.00000000 [kcal/mol]       0.00000000 [kJ/mol]
      delta HF,r (2)               -0.00000517 [mEh]      -0.00000324 [kcal/mol]      -0.00001357 [kJ/mol]

    Dispersion                     -0.00088143 [mEh]      -0.00055311 [kcal/mol]      -0.00231420 [kJ/mol]
      Disp20                       -0.00088143 [mEh]      -0.00055311 [kcal/mol]      -0.00231420 [kJ/mol]
      Exch-Disp20                   0.00000000 [mEh]       0.00000000 [kcal/mol]       0.00000000 [kJ/mol]
      Disp20 (SS)                  -0.00044072 [mEh]      -0.00027655 [kcal/mol]      -0.00115710 [kJ/mol]
      Disp20 (OS)                  -0.00044072 [mEh]      -0.00027655 [kcal/mol]      -0.00115710 [kJ/mol]
      Exch-Disp20 (SS)              0.00000000 [mEh]       0.00000000 [kcal/mol]       0.00000000 [kJ/mol]
      Exch-Disp20 (OS)              0.00000000 [mEh]       0.00000000 [kcal/mol]       0.00000000 [kJ/mol]

  Total HF                          0.00203197 [mEh]       0.00127508 [kcal/mol]       0.00533493 [kJ/mol]
  Total SAPT0                       0.00115053 [mEh]       0.00072197 [kcal/mol]       0.00302073 [kJ/mol]

  Special recipe for scaled SAPT0 (see Manual):
    Electrostatics sSAPT0           0.00204518 [mEh]       0.00128337 [kcal/mol]       0.00536962 [kJ/mol]
    Exchange sSAPT0                 0.00000000 [mEh]       0.00000000 [kcal/mol]       0.00000000 [kJ/mol]
    Induction sSAPT0               -0.00001321 [mEh]      -0.00000829 [kcal/mol]      -0.00003469 [kJ/mol]
    Dispersion sSAPT0              -0.00088143 [mEh]      -0.00055311 [kcal/mol]      -0.00231420 [kJ/mol]
  Total sSAPT0                      0.00115053 [mEh]       0.00072197 [kcal/mol]       0.00302073 [kJ/mol]
  --------------------------------------------------------------------------------------------------------

*** tstop() called on atl1-1-01-013-8-r.pace.gatech.edu at Mon Nov 29 16:11:36 2021
Module time:
	user time   =      36.89 seconds =       0.61 minutes
	system time =       8.32 seconds =       0.14 minutes
	total time  =         24 seconds =       0.40 minutes
Total time:
	user time   =      91.47 seconds =       1.52 minutes
	system time =      10.25 seconds =       0.17 minutes
	total time  =         55 seconds =       0.92 minutes


Warning! sapt0 does not have an associated derived wavefunction.The returned wavefunction is the dimer SCF wavefunction.


    Psi4 stopped on: Monday, 29 November 2021 04:11PM
    Psi4 wall time for execution: 0:00:54.90

*** Psi4 exiting successfully. Buy a developer a beer!
