
Host: ds1

Timers On : Mon Nov 29 16:02:49 2021
Timers Off: Mon Nov 29 16:02:55 2021

Wall Time:        5.61 seconds

                                                       Time (seconds)
Module                                       User      System        Wall        Calls

--------------------------------------------------------------------------------------

**************************************************************************************
