
    -----------------------------------------------------------------------
          Psi4: An Open-Source Ab Initio Electronic Structure Package
                               Psi4 1.4rc3 

                         Git: Rev {HEAD} 080dba6 


    D. G. A. Smith, L. A. Burns, A. C. Simmonett, R. M. Parrish,
    M. C. Schieber, R. Galvelis, P. Kraus, H. Kruse, R. Di Remigio,
    A. Alenaizan, A. M. James, S. Lehtola, J. P. Misiewicz, M. Scheurer,
    R. A. Shaw, J. B. Schriber, Y. Xie, Z. L. Glick, D. A. Sirianni,
    J. S. O'Brien, J. M. Waldrop, A. Kumar, E. G. Hohenstein,
    B. P. Pritchard, B. R. Brooks, H. F. Schaefer III, A. Yu. Sokolov,
    K. Patkowski, A. E. DePrince III, U. Bozkaya, R. A. King,
    F. A. Evangelista, J. M. Turney, T. D. Crawford, C. D. Sherrill,
    J. Chem. Phys. 152(18) 184108 (2020). https://doi.org/10.1063/5.0006002

                            Additional Code Authors
    E. T. Seidl, C. L. Janssen, E. F. Valeev, M. L. Leininger,
    J. F. Gonthier, R. M. Richard, H. R. McAlexander, M. Saitow, X. Wang,
    P. Verma, and M. H. Lechner

             Previous Authors, Complete List of Code Contributors,
                       and Citations for Specific Modules
    https://github.com/psi4/psi4/blob/master/codemeta.json
    https://github.com/psi4/psi4/graphs/contributors
    http://psicode.org/psi4manual/master/introduction.html#citing-psifour

    -----------------------------------------------------------------------


    Psi4 started on: Tuesday, 14 September 2021 04:22PM

    Process ID: 32219
    Host:       ds1
    PSIDATADIR: /theoryfs2/ds/csargent/miniconda3/envs/cle/share/psi4
    Memory:     500.0 MiB
    Threads:    6
    
  ==> Input File <==

--------------------------------------------------------------------------
# PSI4 file produced by CrystaLattE

# Generated from:               imidazole.xyz
# Psithon input for N-mer:      2mer-0+389
# Number of atoms per monomer:  [9, 9]
# Number of replicas:           2
# COM priority:                 1.676585395704e-05
# Minimum COM separations:      20.676 
# Separation priority:          2.425403626684e-05
# Minimum monomer separations:  18.281 
# Cutoff priority:              7.020672213588e-07
# Nuclear repulsion energy:     361.3259727699429

memory 7 GB

molecule Dimer_0_389 {
  N           -4.29309621      -3.06837431       5.30516231 
  N           -2.15847371      -2.92627296       1.72037448 
  H           -0.02545587      -6.35903575       2.22046452 
  H           -2.68566968      -6.53260241       6.61445954 
  H           -4.74388423      -0.00609006       2.75615968 
  H           -1.41045540      -2.24723147       0.00000000 
  C           -1.43737991      -5.07504848       2.94065891 
  C           -2.76900782      -5.14609916       5.13522880 
  C           -3.85955036      -1.77728198       3.21093411 
--
  N          -19.93980564      12.15677114     -28.96961726 
  N          -22.07442814      12.29887249     -25.38482943 
  H          -24.20744598       8.86610970     -25.88491947 
  H          -21.54723217       8.69254304     -30.27891449 
  H          -19.48901763      15.21905539     -26.42061463 
  H          -22.82244645      12.97791398     -23.66445495 
  C          -22.79552194      10.15009697     -26.60511386 
  C          -21.46389403      10.07904629     -28.79968375 
  C          -20.37335149      13.44786347     -26.87538906 
units = au
no_com
no_reorient
}

set {
  e_convergence 10
  d_convergence 10
  scf_type df
  mp2_type df
  cc_type df
  freeze_core true
}

energy('sapt0/aug-cc-pvdz')

--------------------------------------------------------------------------

  Memory set to   6.519 GiB by Python driver.

Scratch directory: /scratch/csargent/psi4.31446.79897/

Scratch directory: /scratch/csargent/psi4.31446.79897/

  //>>>>>>>>>>>>>>>>>>>>>>>>>>>>>>>>>>>//
  //              Dimer HF             //
  //<<<<<<<<<<<<<<<<<<<<<<<<<<<<<<<<<<<//


*** tstart() called on ds1
*** at Tue Sep 14 16:22:50 2021

   => Loading Basis Set <=

    Name: AUG-CC-PVDZ
    Role: ORBITAL
    Keyword: BASIS
    atoms 1-2, 10-11 entry N          line   218 file /theoryfs2/ds/csargent/miniconda3/envs/cle/share/psi4/basis/aug-cc-pvdz.gbs 
    atoms 3-6, 12-15 entry H          line    40 file /theoryfs2/ds/csargent/miniconda3/envs/cle/share/psi4/basis/aug-cc-pvdz.gbs 
    atoms 7-9, 16-18 entry C          line   182 file /theoryfs2/ds/csargent/miniconda3/envs/cle/share/psi4/basis/aug-cc-pvdz.gbs 


         ---------------------------------------------------------
                                   SCF
               by Justin Turney, Rob Parrish, Andy Simmonett
                          and Daniel G. A. Smith
                              RHF Reference
                        6 Threads,   6675 MiB Core
         ---------------------------------------------------------

  ==> Geometry <==

    Molecular point group: c1
    Full point group: C1

    Geometry (in Bohr), charge = 0, multiplicity = 1:

       Center              X                  Y                   Z               Mass       
    ------------   -----------------  -----------------  -----------------  -----------------
         N           -4.293096210000    -3.068374310000     5.305162310000    14.003074004430
         N           -2.158473710000    -2.926272960000     1.720374480000    14.003074004430
         H           -0.025455870000    -6.359035750000     2.220464520000     1.007825032230
         H           -2.685669680000    -6.532602410000     6.614459540000     1.007825032230
         H           -4.743884230000    -0.006090060000     2.756159680000     1.007825032230
         H           -1.410455400000    -2.247231470000     0.000000000000     1.007825032230
         C           -1.437379910000    -5.075048480000     2.940658910000    12.000000000000
         C           -2.769007820000    -5.146099160000     5.135228800000    12.000000000000
         C           -3.859550360000    -1.777281980000     3.210934110000    12.000000000000
         N          -19.939805640000    12.156771140000   -28.969617260000    14.003074004430
         N          -22.074428140000    12.298872490000   -25.384829430000    14.003074004430
         H          -24.207445980000     8.866109700000   -25.884919470000     1.007825032230
         H          -21.547232170000     8.692543040000   -30.278914490000     1.007825032230
         H          -19.489017630000    15.219055390000   -26.420614630000     1.007825032230
         H          -22.822446450000    12.977913980000   -23.664454950000     1.007825032230
         C          -22.795521940000    10.150096970000   -26.605113860000    12.000000000000
         C          -21.463894030000    10.079046290000   -28.799683750000    12.000000000000
         C          -20.373351490000    13.447863470000   -26.875389060000    12.000000000000

  Running in c1 symmetry.

  Rotational constants: A =      0.02315  B =      0.00066  C =      0.00064 [cm^-1]
  Rotational constants: A =    693.96207  B =     19.69504  C =     19.27907 [MHz]
  Nuclear repulsion =  361.325972917564741

  Charge       = 0
  Multiplicity = 1
  Electrons    = 72
  Nalpha       = 36
  Nbeta        = 36

  ==> Algorithm <==

  SCF Algorithm Type is DF.
  DIIS enabled.
  MOM disabled.
  Fractional occupation disabled.
  Guess Type is SAD.
  Energy threshold   = 1.00e-10
  Density threshold  = 1.00e-10
  Integral threshold = 1.00e-12

  ==> Primary Basis <==

  Basis Set: AUG-CC-PVDZ
    Blend: AUG-CC-PVDZ
    Number of shells: 130
    Number of basis functions: 302
    Number of Cartesian functions: 322
    Spherical Harmonics?: true
    Max angular momentum: 2

   => Loading Basis Set <=

    Name: (AUG-CC-PVDZ AUX)
    Role: JKFIT
    Keyword: DF_BASIS_SCF
    atoms 1-2, 10-11 entry N          line   212 file /theoryfs2/ds/csargent/miniconda3/envs/cle/share/psi4/basis/aug-cc-pvdz-jkfit.gbs 
    atoms 3-6, 12-15 entry H          line    70 file /theoryfs2/ds/csargent/miniconda3/envs/cle/share/psi4/basis/aug-cc-pvdz-jkfit.gbs 
    atoms 7-9, 16-18 entry C          line   154 file /theoryfs2/ds/csargent/miniconda3/envs/cle/share/psi4/basis/aug-cc-pvdz-jkfit.gbs 

  ==> Integral Setup <==

  ==> DiskDFJK: Density-Fitted J/K Matrices <==

    J tasked:                  Yes
    K tasked:                  Yes
    wK tasked:                  No
    OpenMP threads:              6
    Integrals threads:           6
    Memory [MiB]:             5006
    Algorithm:                Core
    Integral Cache:           SAVE
    Schwarz Cutoff:          1E-12
    Fitting Condition:       1E-10

   => Auxiliary Basis Set <=

  Basis Set: (AUG-CC-PVDZ AUX)
    Blend: AUG-CC-PVDZ-JKFIT
    Number of shells: 376
    Number of basis functions: 1116
    Number of Cartesian functions: 1290
    Spherical Harmonics?: true
    Max angular momentum: 3

  Minimum eigenvalue in the overlap matrix is 2.1837062936E-05.
  Reciprocal condition number of the overlap matrix is 1.8394514080E-06.
    Using symmetric orthogonalization.

  ==> Pre-Iterations <==

  SCF Guess: Superposition of Atomic Densities via on-the-fly atomic UHF (no occupation information).

   -------------------------
    Irrep   Nso     Nmo    
   -------------------------
     A        302     302 
   -------------------------
    Total     302     302
   -------------------------

  ==> Iterations <==

                           Total Energy        Delta E     RMS |[F,P]|

   @DF-RHF iter SAD:  -449.11714339802029   -4.49117e+02   0.00000e+00 
   @DF-RHF iter   1:  -449.39617832711167   -2.79035e-01   2.30603e-03 DIIS
   @DF-RHF iter   2:  -449.61067952167673   -2.14501e-01   1.31140e-03 DIIS
   @DF-RHF iter   3:  -449.68339943050665   -7.27199e-02   2.46061e-04 DIIS
   @DF-RHF iter   4:  -449.68676921773994   -3.36979e-03   1.12964e-04 DIIS
   @DF-RHF iter   5:  -449.68737206514356   -6.02847e-04   1.78818e-05 DIIS
   @DF-RHF iter   6:  -449.68740672940771   -3.46643e-05   7.94568e-06 DIIS
   @DF-RHF iter   7:  -449.68741290480716   -6.17540e-06   3.10456e-06 DIIS
   @DF-RHF iter   8:  -449.68741436917702   -1.46437e-06   1.09983e-06 DIIS
   @DF-RHF iter   9:  -449.68741459087914   -2.21702e-07   2.65990e-07 DIIS
   @DF-RHF iter  10:  -449.68741460195685   -1.10777e-08   1.03863e-07 DIIS
   @DF-RHF iter  11:  -449.68741460361485   -1.65801e-09   4.62429e-08 DIIS
   @DF-RHF iter  12:  -449.68741460391874   -3.03885e-10   1.37453e-08 DIIS
   @DF-RHF iter  13:  -449.68741460394551   -2.67733e-11   5.07762e-09 DIIS
   @DF-RHF iter  14:  -449.68741460394858   -3.06954e-12   2.24045e-09 DIIS
   @DF-RHF iter  15:  -449.68741460394961   -1.02318e-12   7.46698e-10 DIIS
   @DF-RHF iter  16:  -449.68741460394972   -1.13687e-13   3.32425e-10 DIIS
   @DF-RHF iter  17:  -449.68741460394961    1.13687e-13   6.86297e-11 DIIS
  Energy and wave function converged.


  ==> Post-Iterations <==

    Orbital Energies [Eh]
    ---------------------

    Doubly Occupied:                                                      

       1A    -15.637592     2A    -15.637392     3A    -15.551750  
       4A    -15.551561     5A    -11.301446     6A    -11.301258  
       7A    -11.263676     8A    -11.263470     9A    -11.246171  
      10A    -11.245963    11A     -1.353392    12A     -1.353192  
      13A     -1.169626    14A     -1.169428    15A     -1.012620  
      16A     -1.012419    17A     -0.824912    18A     -0.824714  
      19A     -0.804253    20A     -0.804051    21A     -0.761188  
      22A     -0.760993    23A     -0.610619    24A     -0.610420  
      25A     -0.604483    26A     -0.604282    27A     -0.602436  
      28A     -0.602233    29A     -0.571468    30A     -0.571272  
      31A     -0.436017    32A     -0.435828    33A     -0.400994  
      34A     -0.400794    35A     -0.321208    36A     -0.321004  

    Virtual:                                                              

      37A      0.024931    38A      0.025139    39A      0.041110  
      40A      0.041267    41A      0.049492    42A      0.049671  
      43A      0.061396    44A      0.061559    45A      0.088533  
      46A      0.088743    47A      0.100871    48A      0.101023  
      49A      0.120284    50A      0.120492    51A      0.125060  
      52A      0.125302    53A      0.133020    54A      0.133234  
      55A      0.133277    56A      0.133467    57A      0.140401  
      58A      0.140615    59A      0.156038    60A      0.156265  
      61A      0.158170    62A      0.158283    63A      0.171489  
      64A      0.171698    65A      0.177664    66A      0.177869  
      67A      0.186713    68A      0.186871    69A      0.211013  
      70A      0.211204    71A      0.219728    72A      0.219941  
      73A      0.231824    74A      0.232028    75A      0.240885  
      76A      0.241102    77A      0.261102    78A      0.261297  
      79A      0.267267    80A      0.267435    81A      0.277355  
      82A      0.277548    83A      0.301203    84A      0.301413  
      85A      0.313904    86A      0.314055    87A      0.337687  
      88A      0.337896    89A      0.360993    90A      0.361204  
      91A      0.370225    92A      0.370434    93A      0.379301  
      94A      0.379504    95A      0.387779    96A      0.387973  
      97A      0.396597    98A      0.396793    99A      0.416506  
     100A      0.416676   101A      0.428467   102A      0.428661  
     103A      0.451534   104A      0.451719   105A      0.465825  
     106A      0.466021   107A      0.480716   108A      0.480910  
     109A      0.485777   110A      0.485982   111A      0.487639  
     112A      0.487829   113A      0.551179   114A      0.551378  
     115A      0.555871   116A      0.556070   117A      0.567765  
     118A      0.567957   119A      0.575946   120A      0.576131  
     121A      0.593731   122A      0.593938   123A      0.598433  
     124A      0.598635   125A      0.615552   126A      0.615753  
     127A      0.636025   128A      0.636235   129A      0.651981  
     130A      0.652171   131A      0.668770   132A      0.668962  
     133A      0.670812   134A      0.671017   135A      0.677663  
     136A      0.677859   137A      0.683366   138A      0.683571  
     139A      0.714177   140A      0.714383   141A      0.725253  
     142A      0.725451   143A      0.740719   144A      0.740910  
     145A      0.762176   146A      0.762368   147A      0.766872  
     148A      0.767066   149A      0.790410   150A      0.790614  
     151A      0.793067   152A      0.793253   153A      0.809227  
     154A      0.809427   155A      0.859875   156A      0.860075  
     157A      0.870900   158A      0.871103   159A      0.885237  
     160A      0.885433   161A      0.889309   162A      0.889528  
     163A      0.953821   164A      0.954026   165A      0.976439  
     166A      0.976637   167A      0.997838   168A      0.998029  
     169A      1.010166   170A      1.010363   171A      1.016875  
     172A      1.017081   173A      1.030156   174A      1.030346  
     175A      1.076820   176A      1.077011   177A      1.084022  
     178A      1.084218   179A      1.126459   180A      1.126662  
     181A      1.139973   182A      1.140168   183A      1.149044  
     184A      1.149243   185A      1.166648   186A      1.166843  
     187A      1.216917   188A      1.217111   189A      1.260211  
     190A      1.260415   191A      1.302016   192A      1.302217  
     193A      1.384505   194A      1.384699   195A      1.397616  
     196A      1.397808   197A      1.450619   198A      1.450814  
     199A      1.502763   200A      1.502955   201A      1.517883  
     202A      1.518088   203A      1.573608   204A      1.573762  
     205A      1.573815   206A      1.573963   207A      1.595860  
     208A      1.596061   209A      1.651628   210A      1.651832  
     211A      1.670991   212A      1.671197   213A      1.704765  
     214A      1.704975   215A      1.723940   216A      1.724120  
     217A      1.782124   218A      1.782330   219A      1.798548  
     220A      1.798752   221A      1.806543   222A      1.806749  
     223A      1.864424   224A      1.864617   225A      1.880949  
     226A      1.881133   227A      1.923861   228A      1.924055  
     229A      1.964461   230A      1.964662   231A      2.021492  
     232A      2.021695   233A      2.024912   234A      2.025113  
     235A      2.072459   236A      2.072662   237A      2.106534  
     238A      2.106734   239A      2.126243   240A      2.126447  
     241A      2.135445   242A      2.135652   243A      2.168152  
     244A      2.168352   245A      2.178294   246A      2.178492  
     247A      2.266560   248A      2.266758   249A      2.275436  
     250A      2.275627   251A      2.300394   252A      2.300582  
     253A      2.331545   254A      2.331741   255A      2.417242  
     256A      2.417450   257A      2.496400   258A      2.496598  
     259A      2.513498   260A      2.513694   261A      2.544825  
     262A      2.545019   263A      2.585225   264A      2.585427  
     265A      2.633243   266A      2.633442   267A      2.733575  
     268A      2.733781   269A      2.746497   270A      2.746693  
     271A      2.766568   272A      2.766772   273A      2.793625  
     274A      2.793825   275A      2.802915   276A      2.803112  
     277A      2.837122   278A      2.837321   279A      2.866685  
     280A      2.866881   281A      2.952215   282A      2.952414  
     283A      2.980331   284A      2.980526   285A      3.050682  
     286A      3.050885   287A      3.069390   288A      3.069589  
     289A      3.198636   290A      3.198831   291A      3.208272  
     292A      3.208471   293A      3.334290   294A      3.334484  
     295A      3.354046   296A      3.354244   297A      3.518025  
     298A      3.518224   299A      3.767767   300A      3.767963  
     301A      4.108505   302A      4.108710  

    Final Occupation by Irrep:
              A 
    DOCC [    36 ]

  @DF-RHF Final Energy:  -449.68741460394961

   => Energetics <=

    Nuclear Repulsion Energy =            361.3259729175647408
    One-Electron Energy =               -1324.1385256511432544
    Two-Electron Energy =                 513.1251381296289082
    Total Energy =                       -449.6874146039496054

Computation Completed


Properties will be evaluated at   0.000000,   0.000000,   0.000000 [a0]

Properties computed using the SCF density matrix

  Nuclear Dipole Moment: [e a0]
     X:  -872.3845      Y:   289.9091      Z:  -851.9204

  Electronic Dipole Moment: [e a0]
     X:   872.3844      Y:  -289.5833      Z:   851.9199

  Dipole Moment: [e a0]
     X:    -0.0001      Y:     0.3258      Z:    -0.0005     Total:     0.3258

  Dipole Moment: [D]
     X:    -0.0003      Y:     0.8280      Z:    -0.0012     Total:     0.8280


*** tstop() called on ds1 at Tue Sep 14 16:22:54 2021
Module time:
	user time   =      22.02 seconds =       0.37 minutes
	system time =       0.56 seconds =       0.01 minutes
	total time  =          4 seconds =       0.07 minutes
Total time:
	user time   =      22.02 seconds =       0.37 minutes
	system time =       0.56 seconds =       0.01 minutes
	total time  =          4 seconds =       0.07 minutes

  //>>>>>>>>>>>>>>>>>>>>>>>>>>>>>>>>>>>//
  //            Monomer A HF           //
  //<<<<<<<<<<<<<<<<<<<<<<<<<<<<<<<<<<<//


*** tstart() called on ds1
*** at Tue Sep 14 16:22:54 2021

   => Loading Basis Set <=

    Name: AUG-CC-PVDZ
    Role: ORBITAL
    Keyword: BASIS
    atoms 1-2, 10-11 entry N          line   218 file /theoryfs2/ds/csargent/miniconda3/envs/cle/share/psi4/basis/aug-cc-pvdz.gbs 
    atoms 3-6, 12-15 entry H          line    40 file /theoryfs2/ds/csargent/miniconda3/envs/cle/share/psi4/basis/aug-cc-pvdz.gbs 
    atoms 7-9, 16-18 entry C          line   182 file /theoryfs2/ds/csargent/miniconda3/envs/cle/share/psi4/basis/aug-cc-pvdz.gbs 


         ---------------------------------------------------------
                                   SCF
               by Justin Turney, Rob Parrish, Andy Simmonett
                          and Daniel G. A. Smith
                              RHF Reference
                        6 Threads,   6675 MiB Core
         ---------------------------------------------------------

  ==> Geometry <==

    Molecular point group: c1
    Full point group: C1

    Geometry (in Bohr), charge = 0, multiplicity = 1:

       Center              X                  Y                   Z               Mass       
    ------------   -----------------  -----------------  -----------------  -----------------
         N           -4.293096210000    -3.068374310000     5.305162310000    14.003074004430
         N           -2.158473710000    -2.926272960000     1.720374480000    14.003074004430
         H           -0.025455870000    -6.359035750000     2.220464520000     1.007825032230
         H           -2.685669680000    -6.532602410000     6.614459540000     1.007825032230
         H           -4.743884230000    -0.006090060000     2.756159680000     1.007825032230
         H           -1.410455400000    -2.247231470000     0.000000000000     1.007825032230
         C           -1.437379910000    -5.075048480000     2.940658910000    12.000000000000
         C           -2.769007820000    -5.146099160000     5.135228800000    12.000000000000
         C           -3.859550360000    -1.777281980000     3.210934110000    12.000000000000
      Gh(N)         -19.939805640000    12.156771140000   -28.969617260000    14.003074004430
      Gh(N)         -22.074428140000    12.298872490000   -25.384829430000    14.003074004430
      Gh(H)         -24.207445980000     8.866109700000   -25.884919470000     1.007825032230
      Gh(H)         -21.547232170000     8.692543040000   -30.278914490000     1.007825032230
      Gh(H)         -19.489017630000    15.219055390000   -26.420614630000     1.007825032230
      Gh(H)         -22.822446450000    12.977913980000   -23.664454950000     1.007825032230
      Gh(C)         -22.795521940000    10.150096970000   -26.605113860000    12.000000000000
      Gh(C)         -21.463894030000    10.079046290000   -28.799683750000    12.000000000000
      Gh(C)         -20.373351490000    13.447863470000   -26.875389060000    12.000000000000

  Running in c1 symmetry.

  Rotational constants: A =      0.02315  B =      0.00066  C =      0.00064 [cm^-1]
  Rotational constants: A =    693.96207  B =     19.69504  C =     19.27907 [MHz]
  Nuclear repulsion =  164.086695994184396

  Charge       = 0
  Multiplicity = 1
  Electrons    = 36
  Nalpha       = 18
  Nbeta        = 18

  ==> Algorithm <==

  SCF Algorithm Type is DF.
  DIIS enabled.
  MOM disabled.
  Fractional occupation disabled.
  Guess Type is SAD.
  Energy threshold   = 1.00e-10
  Density threshold  = 1.00e-10
  Integral threshold = 1.00e-12

  ==> Primary Basis <==

  Basis Set: AUG-CC-PVDZ
    Blend: AUG-CC-PVDZ
    Number of shells: 130
    Number of basis functions: 302
    Number of Cartesian functions: 322
    Spherical Harmonics?: true
    Max angular momentum: 2

   => Loading Basis Set <=

    Name: (AUG-CC-PVDZ AUX)
    Role: JKFIT
    Keyword: DF_BASIS_SCF
    atoms 1-2, 10-11 entry N          line   212 file /theoryfs2/ds/csargent/miniconda3/envs/cle/share/psi4/basis/aug-cc-pvdz-jkfit.gbs 
    atoms 3-6, 12-15 entry H          line    70 file /theoryfs2/ds/csargent/miniconda3/envs/cle/share/psi4/basis/aug-cc-pvdz-jkfit.gbs 
    atoms 7-9, 16-18 entry C          line   154 file /theoryfs2/ds/csargent/miniconda3/envs/cle/share/psi4/basis/aug-cc-pvdz-jkfit.gbs 

  ==> Integral Setup <==

  ==> DiskDFJK: Density-Fitted J/K Matrices <==

    J tasked:                  Yes
    K tasked:                  Yes
    wK tasked:                  No
    OpenMP threads:              6
    Integrals threads:           6
    Memory [MiB]:             5006
    Algorithm:                Core
    Integral Cache:           LOAD
    Schwarz Cutoff:          1E-12
    Fitting Condition:       1E-10

   => Auxiliary Basis Set <=

  Basis Set: (AUG-CC-PVDZ AUX)
    Blend: AUG-CC-PVDZ-JKFIT
    Number of shells: 376
    Number of basis functions: 1116
    Number of Cartesian functions: 1290
    Spherical Harmonics?: true
    Max angular momentum: 3

  Minimum eigenvalue in the overlap matrix is 2.1837062936E-05.
  Reciprocal condition number of the overlap matrix is 1.8394514080E-06.
    Using symmetric orthogonalization.

  ==> Pre-Iterations <==

  SCF Guess: Superposition of Atomic Densities via on-the-fly atomic UHF (no occupation information).

   -------------------------
    Irrep   Nso     Nmo    
   -------------------------
     A        302     302 
   -------------------------
    Total     302     302
   -------------------------

  ==> Iterations <==

                           Total Energy        Delta E     RMS |[F,P]|

   @DF-RHF iter SAD:  -224.55857169510864   -2.24559e+02   0.00000e+00 
   @DF-RHF iter   1:  -224.69806464782383   -1.39493e-01   1.63067e-03 DIIS
   @DF-RHF iter   2:  -224.80532026637326   -1.07256e-01   9.27384e-04 DIIS
   @DF-RHF iter   3:  -224.84168817030840   -3.63679e-02   1.74019e-04 DIIS
   @DF-RHF iter   4:  -224.84337342237924   -1.68525e-03   7.98972e-05 DIIS
   @DF-RHF iter   5:  -224.84367500309153   -3.01581e-04   1.26452e-05 DIIS
   @DF-RHF iter   6:  -224.84369234012527   -1.73370e-05   5.61871e-06 DIIS
   @DF-RHF iter   7:  -224.84369542819391   -3.08807e-06   2.19503e-06 DIIS
   @DF-RHF iter   8:  -224.84369616011259   -7.31919e-07   7.77587e-07 DIIS
   @DF-RHF iter   9:  -224.84369627090643   -1.10794e-07   1.87961e-07 DIIS
   @DF-RHF iter  10:  -224.84369627644213   -5.53570e-09   7.33125e-08 DIIS
   @DF-RHF iter  11:  -224.84369627726852   -8.26390e-10   3.26918e-08 DIIS
   @DF-RHF iter  12:  -224.84369627742055   -1.52028e-10   9.70884e-09 DIIS
   @DF-RHF iter  13:  -224.84369627743354   -1.29887e-11   3.58840e-09 DIIS
   @DF-RHF iter  14:  -224.84369627743544   -1.90425e-12   1.58275e-09 DIIS
   @DF-RHF iter  15:  -224.84369627743587   -4.26326e-13   5.27556e-10 DIIS
   @DF-RHF iter  16:  -224.84369627743592   -5.68434e-14   2.34517e-10 DIIS
   @DF-RHF iter  17:  -224.84369627743587    5.68434e-14   4.71139e-11 DIIS
  Energy and wave function converged.


  ==> Post-Iterations <==

    Orbital Energies [Eh]
    ---------------------

    Doubly Occupied:                                                      

       1A    -15.637071     2A    -15.551216     3A    -11.300916  
       4A    -11.263160     5A    -11.245653     6A     -1.352867  
       7A     -1.169098     8A     -1.012098     9A     -0.824390  
      10A     -0.803731    11A     -0.760666    12A     -0.610096  
      13A     -0.603958    14A     -0.601922    15A     -0.570942  
      16A     -0.435483    17A     -0.400464    18A     -0.320685  

    Virtual:                                                              

      19A      0.022156    20A      0.025388    21A      0.039691  
      22A      0.041580    23A      0.043227    24A      0.049997  
      25A      0.061864    26A      0.067346    27A      0.076077  
      28A      0.085770    29A      0.089096    30A      0.097162  
      31A      0.101397    32A      0.120831    33A      0.124189  
      34A      0.124591    35A      0.125577    36A      0.126435  
      37A      0.126889    38A      0.133472    39A      0.133647  
      40A      0.133773    41A      0.137744    42A      0.140942  
      43A      0.156336    44A      0.156500    45A      0.158699  
      46A      0.171988    47A      0.178189    48A      0.187224  
      49A      0.191793    50A      0.207340    51A      0.208958  
      52A      0.211559    53A      0.212063    54A      0.219859  
      55A      0.220268    56A      0.222144    57A      0.232359  
      58A      0.232691    59A      0.241408    60A      0.261605  
      61A      0.267803    62A      0.271746    63A      0.277911  
      64A      0.298956    65A      0.301746    66A      0.306040  
      67A      0.314442    68A      0.318834    69A      0.338197  
      70A      0.359739    71A      0.361488    72A      0.370745  
      73A      0.375123    74A      0.379800    75A      0.388291  
      76A      0.393020    77A      0.397097    78A      0.417031  
      79A      0.427019    80A      0.429000    81A      0.434820  
      82A      0.439957    83A      0.448637    84A      0.451743  
      85A      0.452059    86A      0.466350    87A      0.467759  
      88A      0.480634    89A      0.481229    90A      0.486283  
      91A      0.488151    92A      0.516951    93A      0.520202  
      94A      0.535577    95A      0.537855    96A      0.542738  
      97A      0.551710    98A      0.555446    99A      0.556382  
     100A      0.568280   101A      0.576474   102A      0.579002  
     103A      0.587164   104A      0.594249   105A      0.598939  
     106A      0.606059   107A      0.611645   108A      0.616080  
     109A      0.617953   110A      0.636538   111A      0.639380  
     112A      0.652504   113A      0.669282   114A      0.671337  
     115A      0.677270   116A      0.678185   117A      0.683394  
     118A      0.683874   119A      0.710798   120A      0.714698  
     121A      0.725758   122A      0.735720   123A      0.741238  
     124A      0.755744   125A      0.762698   126A      0.767400  
     127A      0.790929   128A      0.793606   129A      0.797846  
     130A      0.809747   131A      0.810092   132A      0.812073  
     133A      0.822897   134A      0.836215   135A      0.859242  
     136A      0.860398   137A      0.871425   138A      0.885765  
     139A      0.886174   140A      0.889823   141A      0.909358  
     142A      0.919270   143A      0.926526   144A      0.954351  
     145A      0.968360   146A      0.976964   147A      0.991442  
     148A      0.998360   149A      1.010706   150A      1.015070  
     151A      1.017404   152A      1.030676   153A      1.058643  
     154A      1.077353   155A      1.078239   156A      1.084552  
     157A      1.103284   158A      1.115648   159A      1.126983  
     160A      1.132103   161A      1.140497   162A      1.149565  
     163A      1.167170   164A      1.170519   165A      1.173685  
     166A      1.197184   167A      1.210213   168A      1.217445  
     169A      1.260721   170A      1.277654   171A      1.290276  
     172A      1.296622   173A      1.302539   174A      1.312192  
     175A      1.317744   176A      1.347212   177A      1.383746  
     178A      1.385028   179A      1.398145   180A      1.451143  
     181A      1.494559   182A      1.503288   183A      1.515476  
     184A      1.518410   185A      1.540989   186A      1.574127  
     187A      1.574285   188A      1.596381   189A      1.652159  
     190A      1.660586   191A      1.671505   192A      1.705286  
     193A      1.724477   194A      1.782643   195A      1.799067  
     196A      1.807063   197A      1.864950   198A      1.881477  
     199A      1.924391   200A      1.964987   201A      2.022005  
     202A      2.025429   203A      2.039354   204A      2.072981  
     205A      2.100730   206A      2.107054   207A      2.119108  
     208A      2.126759   209A      2.131060   210A      2.135965  
     211A      2.149178   212A      2.168670   213A      2.178815  
     214A      2.184809   215A      2.229444   216A      2.252452  
     217A      2.267082   218A      2.275963   219A      2.300924  
     220A      2.308378   221A      2.326880   222A      2.332072  
     223A      2.376548   224A      2.405364   225A      2.413117  
     226A      2.417758   227A      2.455493   228A      2.470572  
     229A      2.493683   230A      2.496919   231A      2.514025  
     232A      2.525611   233A      2.545215   234A      2.545345  
     235A      2.576646   236A      2.585743   237A      2.599642  
     238A      2.633765   239A      2.696024   240A      2.734093  
     241A      2.747025   242A      2.767089   243A      2.790152  
     244A      2.794149   245A      2.803444   246A      2.828661  
     247A      2.837641   248A      2.867213   249A      2.895586  
     250A      2.933102   251A      2.949247   252A      2.952738  
     253A      2.980862   254A      3.043344   255A      3.051201  
     256A      3.069910   257A      3.076036   258A      3.131746  
     259A      3.159482   260A      3.182798   261A      3.199163  
     262A      3.208795   263A      3.213239   264A      3.334816  
     265A      3.340710   266A      3.354572   267A      3.354612  
     268A      3.362758   269A      3.458530   270A      3.494309  
     271A      3.518552   272A      3.569466   273A      3.608780  
     274A      3.707111   275A      3.726596   276A      3.768294  
     277A      3.778260   278A      3.798070   279A      3.857823  
     280A      3.870597   281A      4.003760   282A      4.109022  
     283A      4.212640   284A      4.636624   285A      4.638695  
     286A      4.695853   287A      4.771686   288A      4.879964  
     289A      5.021304   290A      5.254564   291A      5.373075  
     292A      5.494716   293A      5.610272   294A      5.716180  
     295A      5.883812   296A      6.089596   297A      6.198050  
     298A     18.255378   299A     18.590013   300A     19.300338  
     301A     25.311809   302A     25.453167  

    Final Occupation by Irrep:
              A 
    DOCC [    18 ]

  @DF-RHF Final Energy:  -224.84369627743587

   => Energetics <=

    Nuclear Repulsion Energy =            164.0866959941843959
    One-Electron Energy =                -628.9319562977632359
    Two-Electron Energy =                 240.0015640261429439
    Total Energy =                       -224.8436962774358676

Computation Completed


Properties will be evaluated at   0.000000,   0.000000,   0.000000 [a0]

Properties computed using the SCF density matrix

  Nuclear Dipole Moment: [e a0]
     X:  -102.4221      Y:  -129.0981      Z:   128.4908

  Electronic Dipole Moment: [e a0]
     X:   103.2259      Y:   129.2613      Z:  -129.8232

  Dipole Moment: [e a0]
     X:     0.8038      Y:     0.1633      Z:    -1.3324     Total:     1.5646

  Dipole Moment: [D]
     X:     2.0431      Y:     0.4150      Z:    -3.3867     Total:     3.9769


*** tstop() called on ds1 at Tue Sep 14 16:22:58 2021
Module time:
	user time   =      15.97 seconds =       0.27 minutes
	system time =       0.32 seconds =       0.01 minutes
	total time  =          4 seconds =       0.07 minutes
Total time:
	user time   =      38.21 seconds =       0.64 minutes
	system time =       0.89 seconds =       0.01 minutes
	total time  =          8 seconds =       0.13 minutes

  //>>>>>>>>>>>>>>>>>>>>>>>>>>>>>>>>>>>//
  //            Monomer B HF           //
  //<<<<<<<<<<<<<<<<<<<<<<<<<<<<<<<<<<<//


*** tstart() called on ds1
*** at Tue Sep 14 16:22:58 2021

   => Loading Basis Set <=

    Name: AUG-CC-PVDZ
    Role: ORBITAL
    Keyword: BASIS
    atoms 1-2, 10-11 entry N          line   218 file /theoryfs2/ds/csargent/miniconda3/envs/cle/share/psi4/basis/aug-cc-pvdz.gbs 
    atoms 3-6, 12-15 entry H          line    40 file /theoryfs2/ds/csargent/miniconda3/envs/cle/share/psi4/basis/aug-cc-pvdz.gbs 
    atoms 7-9, 16-18 entry C          line   182 file /theoryfs2/ds/csargent/miniconda3/envs/cle/share/psi4/basis/aug-cc-pvdz.gbs 


         ---------------------------------------------------------
                                   SCF
               by Justin Turney, Rob Parrish, Andy Simmonett
                          and Daniel G. A. Smith
                              RHF Reference
                        6 Threads,   6675 MiB Core
         ---------------------------------------------------------

  ==> Geometry <==

    Molecular point group: c1
    Full point group: C1

    Geometry (in Bohr), charge = 0, multiplicity = 1:

       Center              X                  Y                   Z               Mass       
    ------------   -----------------  -----------------  -----------------  -----------------
      Gh(N)          -4.293096210000    -3.068374310000     5.305162310000    14.003074004430
      Gh(N)          -2.158473710000    -2.926272960000     1.720374480000    14.003074004430
      Gh(H)          -0.025455870000    -6.359035750000     2.220464520000     1.007825032230
      Gh(H)          -2.685669680000    -6.532602410000     6.614459540000     1.007825032230
      Gh(H)          -4.743884230000    -0.006090060000     2.756159680000     1.007825032230
      Gh(H)          -1.410455400000    -2.247231470000     0.000000000000     1.007825032230
      Gh(C)          -1.437379910000    -5.075048480000     2.940658910000    12.000000000000
      Gh(C)          -2.769007820000    -5.146099160000     5.135228800000    12.000000000000
      Gh(C)          -3.859550360000    -1.777281980000     3.210934110000    12.000000000000
         N          -19.939805640000    12.156771140000   -28.969617260000    14.003074004430
         N          -22.074428140000    12.298872490000   -25.384829430000    14.003074004430
         H          -24.207445980000     8.866109700000   -25.884919470000     1.007825032230
         H          -21.547232170000     8.692543040000   -30.278914490000     1.007825032230
         H          -19.489017630000    15.219055390000   -26.420614630000     1.007825032230
         H          -22.822446450000    12.977913980000   -23.664454950000     1.007825032230
         C          -22.795521940000    10.150096970000   -26.605113860000    12.000000000000
         C          -21.463894030000    10.079046290000   -28.799683750000    12.000000000000
         C          -20.373351490000    13.447863470000   -26.875389060000    12.000000000000

  Running in c1 symmetry.

  Rotational constants: A =      0.02315  B =      0.00066  C =      0.00064 [cm^-1]
  Rotational constants: A =    693.96207  B =     19.69504  C =     19.27907 [MHz]
  Nuclear repulsion =  164.086696005627033

  Charge       = 0
  Multiplicity = 1
  Electrons    = 36
  Nalpha       = 18
  Nbeta        = 18

  ==> Algorithm <==

  SCF Algorithm Type is DF.
  DIIS enabled.
  MOM disabled.
  Fractional occupation disabled.
  Guess Type is SAD.
  Energy threshold   = 1.00e-10
  Density threshold  = 1.00e-10
  Integral threshold = 1.00e-12

  ==> Primary Basis <==

  Basis Set: AUG-CC-PVDZ
    Blend: AUG-CC-PVDZ
    Number of shells: 130
    Number of basis functions: 302
    Number of Cartesian functions: 322
    Spherical Harmonics?: true
    Max angular momentum: 2

   => Loading Basis Set <=

    Name: (AUG-CC-PVDZ AUX)
    Role: JKFIT
    Keyword: DF_BASIS_SCF
    atoms 1-2, 10-11 entry N          line   212 file /theoryfs2/ds/csargent/miniconda3/envs/cle/share/psi4/basis/aug-cc-pvdz-jkfit.gbs 
    atoms 3-6, 12-15 entry H          line    70 file /theoryfs2/ds/csargent/miniconda3/envs/cle/share/psi4/basis/aug-cc-pvdz-jkfit.gbs 
    atoms 7-9, 16-18 entry C          line   154 file /theoryfs2/ds/csargent/miniconda3/envs/cle/share/psi4/basis/aug-cc-pvdz-jkfit.gbs 

  ==> Integral Setup <==

  ==> DiskDFJK: Density-Fitted J/K Matrices <==

    J tasked:                  Yes
    K tasked:                  Yes
    wK tasked:                  No
    OpenMP threads:              6
    Integrals threads:           6
    Memory [MiB]:             5006
    Algorithm:                Core
    Integral Cache:           LOAD
    Schwarz Cutoff:          1E-12
    Fitting Condition:       1E-10

   => Auxiliary Basis Set <=

  Basis Set: (AUG-CC-PVDZ AUX)
    Blend: AUG-CC-PVDZ-JKFIT
    Number of shells: 376
    Number of basis functions: 1116
    Number of Cartesian functions: 1290
    Spherical Harmonics?: true
    Max angular momentum: 3

  Minimum eigenvalue in the overlap matrix is 2.1837062936E-05.
  Reciprocal condition number of the overlap matrix is 1.8394514080E-06.
    Using symmetric orthogonalization.

  ==> Pre-Iterations <==

  SCF Guess: Superposition of Atomic Densities via on-the-fly atomic UHF (no occupation information).

   -------------------------
    Irrep   Nso     Nmo    
   -------------------------
     A        302     302 
   -------------------------
    Total     302     302
   -------------------------

  ==> Iterations <==

                           Total Energy        Delta E     RMS |[F,P]|

   @DF-RHF iter SAD:  -224.55857169674724   -2.24559e+02   0.00000e+00 
   @DF-RHF iter   1:  -224.69806464888580   -1.39493e-01   1.63067e-03 DIIS
   @DF-RHF iter   2:  -224.80532026735494   -1.07256e-01   9.27384e-04 DIIS
   @DF-RHF iter   3:  -224.84168817121832   -3.63679e-02   1.74019e-04 DIIS
   @DF-RHF iter   4:  -224.84337342329337   -1.68525e-03   7.98972e-05 DIIS
   @DF-RHF iter   5:  -224.84367500400688   -3.01581e-04   1.26452e-05 DIIS
   @DF-RHF iter   6:  -224.84369234104003   -1.73370e-05   5.61871e-06 DIIS
   @DF-RHF iter   7:  -224.84369542911023   -3.08807e-06   2.19503e-06 DIIS
   @DF-RHF iter   8:  -224.84369616102816   -7.31918e-07   7.77587e-07 DIIS
   @DF-RHF iter   9:  -224.84369627182221   -1.10794e-07   1.87961e-07 DIIS
   @DF-RHF iter  10:  -224.84369627735774   -5.53553e-09   7.33125e-08 DIIS
   @DF-RHF iter  11:  -224.84369627818401   -8.26276e-10   3.26918e-08 DIIS
   @DF-RHF iter  12:  -224.84369627833644   -1.52426e-10   9.70884e-09 DIIS
   @DF-RHF iter  13:  -224.84369627834937   -1.29319e-11   3.58840e-09 DIIS
   @DF-RHF iter  14:  -224.84369627835099   -1.62004e-12   1.58275e-09 DIIS
   @DF-RHF iter  15:  -224.84369627835144   -4.54747e-13   5.27556e-10 DIIS
   @DF-RHF iter  16:  -224.84369627835173   -2.84217e-13   2.34517e-10 DIIS
   @DF-RHF iter  17:  -224.84369627835198   -2.55795e-13   4.71135e-11 DIIS
  Energy and wave function converged.


  ==> Post-Iterations <==

    Orbital Energies [Eh]
    ---------------------

    Doubly Occupied:                                                      

       1A    -15.637071     2A    -15.551216     3A    -11.300916  
       4A    -11.263160     5A    -11.245653     6A     -1.352867  
       7A     -1.169098     8A     -1.012098     9A     -0.824390  
      10A     -0.803731    11A     -0.760666    12A     -0.610096  
      13A     -0.603958    14A     -0.601922    15A     -0.570942  
      16A     -0.435483    17A     -0.400464    18A     -0.320685  

    Virtual:                                                              

      19A      0.022353    20A      0.025388    21A      0.039827  
      22A      0.041580    23A      0.043443    24A      0.049997  
      25A      0.061864    26A      0.067525    27A      0.076296  
      28A      0.085919    29A      0.089096    30A      0.097348  
      31A      0.101397    32A      0.120831    33A      0.124412  
      34A      0.124823    35A      0.125577    36A      0.126626  
      37A      0.127057    38A      0.133472    39A      0.133773  
      40A      0.133818    41A      0.137948    42A      0.140942  
      43A      0.156500    44A      0.156553    45A      0.158699  
      46A      0.171988    47A      0.178189    48A      0.187224  
      49A      0.191983    50A      0.207555    51A      0.209153  
      52A      0.211559    53A      0.212252    54A      0.220020  
      55A      0.220268    56A      0.222349    57A      0.232359  
      58A      0.232899    59A      0.241408    60A      0.261605  
      61A      0.267803    62A      0.271923    63A      0.277911  
      64A      0.299117    65A      0.301746    66A      0.306234  
      67A      0.314442    68A      0.319029    69A      0.338197  
      70A      0.359916    71A      0.361488    72A      0.370745  
      73A      0.375345    74A      0.379800    75A      0.388291  
      76A      0.393212    77A      0.397097    78A      0.417031  
      79A      0.427242    80A      0.429000    81A      0.435055  
      82A      0.440150    83A      0.448837    84A      0.451953  
      85A      0.452059    86A      0.466350    87A      0.467961  
      88A      0.480816    89A      0.481229    90A      0.486283  
      91A      0.488151    92A      0.517133    93A      0.520395  
      94A      0.535743    95A      0.538070    96A      0.542938  
      97A      0.551710    98A      0.555634    99A      0.556382  
     100A      0.568280   101A      0.576474   102A      0.579205  
     103A      0.587350   104A      0.594249   105A      0.598939  
     106A      0.606279   107A      0.611828   108A      0.616080  
     109A      0.618148   110A      0.636538   111A      0.639595  
     112A      0.652504   113A      0.669282   114A      0.671337  
     115A      0.677456   116A      0.678185   117A      0.683592  
     118A      0.683874   119A      0.710975   120A      0.714698  
     121A      0.725758   122A      0.735934   123A      0.741238  
     124A      0.755941   125A      0.762698   126A      0.767400  
     127A      0.790929   128A      0.793606   129A      0.798052  
     130A      0.809747   131A      0.810300   132A      0.812241  
     133A      0.823118   134A      0.836424   135A      0.859445  
     136A      0.860398   137A      0.871425   138A      0.885765  
     139A      0.886362   140A      0.889823   141A      0.909563  
     142A      0.919463   143A      0.926726   144A      0.954351  
     145A      0.968559   146A      0.976964   147A      0.991640  
     148A      0.998360   149A      1.010706   150A      1.015262  
     151A      1.017404   152A      1.030676   153A      1.058853  
     154A      1.077353   155A      1.078445   156A      1.084552  
     157A      1.103479   158A      1.115861   159A      1.126983  
     160A      1.132316   161A      1.140497   162A      1.149565  
     163A      1.167170   164A      1.170723   165A      1.173885  
     166A      1.197381   167A      1.210413   168A      1.217445  
     169A      1.260721   170A      1.277839   171A      1.290468  
     172A      1.296815   173A      1.302539   174A      1.312392  
     175A      1.317942   176A      1.347404   177A      1.383951  
     178A      1.385028   179A      1.398145   180A      1.451143  
     181A      1.494757   182A      1.503288   183A      1.515668  
     184A      1.518410   185A      1.541189   186A      1.574127  
     187A      1.574285   188A      1.596381   189A      1.652159  
     190A      1.660788   191A      1.671505   192A      1.705286  
     193A      1.724477   194A      1.782643   195A      1.799067  
     196A      1.807063   197A      1.864950   198A      1.881477  
     199A      1.924391   200A      1.964987   201A      2.022005  
     202A      2.025429   203A      2.039564   204A      2.072981  
     205A      2.100915   206A      2.107054   207A      2.119280  
     208A      2.126759   209A      2.131262   210A      2.135965  
     211A      2.149388   212A      2.168670   213A      2.178815  
     214A      2.185039   215A      2.229649   216A      2.252654  
     217A      2.267082   218A      2.275963   219A      2.300924  
     220A      2.308597   221A      2.327065   222A      2.332072  
     223A      2.376724   224A      2.405576   225A      2.413338  
     226A      2.417758   227A      2.455712   228A      2.470771  
     229A      2.493891   230A      2.496919   231A      2.514025  
     232A      2.525801   233A      2.545345   234A      2.545416  
     235A      2.576859   236A      2.585743   237A      2.599859  
     238A      2.633765   239A      2.696242   240A      2.734093  
     241A      2.747025   242A      2.767089   243A      2.790327  
     244A      2.794149   245A      2.803444   246A      2.828876  
     247A      2.837641   248A      2.867213   249A      2.895760  
     250A      2.933325   251A      2.949460   252A      2.952738  
     253A      2.980862   254A      3.043528   255A      3.051201  
     256A      3.069910   257A      3.076236   258A      3.131928  
     259A      3.159671   260A      3.183000   261A      3.199163  
     262A      3.208795   263A      3.213437   264A      3.334816  
     265A      3.340916   266A      3.354572   267A      3.354809  
     268A      3.362974   269A      3.458727   270A      3.494494  
     271A      3.518552   272A      3.569676   273A      3.608971  
     274A      3.707315   275A      3.726799   276A      3.768294  
     277A      3.778465   278A      3.798274   279A      3.858035  
     280A      3.870791   281A      4.003954   282A      4.109022  
     283A      4.212832   284A      4.636834   285A      4.638895  
     286A      4.696058   287A      4.771886   288A      4.880166  
     289A      5.021505   290A      5.254751   291A      5.373275  
     292A      5.494909   293A      5.610484   294A      5.716386  
     295A      5.884003   296A      6.089804   297A      6.198242  
     298A     18.255601   299A     18.590183   300A     19.300562  
     301A     25.311992   302A     25.453374  

    Final Occupation by Irrep:
              A 
    DOCC [    18 ]

  @DF-RHF Final Energy:  -224.84369627835198

   => Energetics <=

    Nuclear Repulsion Energy =            164.0866960056270329
    One-Electron Energy =                -628.9319563218032272
    Two-Electron Energy =                 240.0015640378242381
    Total Energy =                       -224.8436962783519846

Computation Completed


Properties will be evaluated at   0.000000,   0.000000,   0.000000 [a0]

Properties computed using the SCF density matrix

  Nuclear Dipole Moment: [e a0]
     X:  -769.9624      Y:   419.0072      Z:  -980.4112

  Electronic Dipole Moment: [e a0]
     X:   769.1586      Y:  -418.8439      Z:   981.7436

  Dipole Moment: [e a0]
     X:    -0.8038      Y:     0.1633      Z:     1.3324     Total:     1.5646

  Dipole Moment: [D]
     X:    -2.0431      Y:     0.4150      Z:     3.3867     Total:     3.9769


*** tstop() called on ds1 at Tue Sep 14 16:23:01 2021
Module time:
	user time   =      15.90 seconds =       0.26 minutes
	system time =       0.31 seconds =       0.01 minutes
	total time  =          3 seconds =       0.05 minutes
Total time:
	user time   =      54.32 seconds =       0.91 minutes
	system time =       1.21 seconds =       0.02 minutes
	total time  =         11 seconds =       0.18 minutes
  Constructing Basis Sets for SAPT...

   => Loading Basis Set <=

    Name: (AUG-CC-PVDZ AUX)
    Role: RIFIT
    Keyword: DF_BASIS_SAPT
    atoms 1-2, 10-11 entry N          line   158 file /theoryfs2/ds/csargent/miniconda3/envs/cle/share/psi4/basis/aug-cc-pvdz-ri.gbs 
    atoms 3-6, 12-15 entry H          line    30 file /theoryfs2/ds/csargent/miniconda3/envs/cle/share/psi4/basis/aug-cc-pvdz-ri.gbs 
    atoms 7-9, 16-18 entry C          line   112 file /theoryfs2/ds/csargent/miniconda3/envs/cle/share/psi4/basis/aug-cc-pvdz-ri.gbs 


  //>>>>>>>>>>>>>>>>>>>>>>>>>>>>>>>>>>>//
  //               SAPT0               //
  //<<<<<<<<<<<<<<<<<<<<<<<<<<<<<<<<<<<//


*** tstart() called on ds1
*** at Tue Sep 14 16:23:02 2021

        SAPT0  
    Ed Hohenstein
     6 June 2009

      Orbital Information
  --------------------------
    NSO        =       302
    NMO        =       302
    NRI        =       904
    NOCC A     =        18
    NOCC B     =        18
    FOCC A     =         5
    FOCC B     =         5
    NVIR A     =       284
    NVIR B     =       284

    Elst10,r            =    -0.000021997040 [Eh]
    Exch10              =     0.000000000000 [Eh]
    Exch10 (S^2)        =     0.000000000000 [Eh]

    Iter     Energy [mEh]          dE [mEh]         Residual      Time [s]
       1      -0.00002224       0.000022244       0.046965173             0
       2      -0.00002116      -0.000001089       0.013474834             0
       3      -0.00002365       0.000002498       0.005054842             0
       4      -0.00002390       0.000000245       0.002285229             0
       5      -0.00002381      -0.000000085       0.001142273             0
       6      -0.00002378      -0.000000038       0.000319847             0
       7      -0.00002379       0.000000010       0.000097882             0
       8      -0.00002379       0.000000003       0.000032677             1
       9      -0.00002379      -0.000000000       0.000012036             1
      10      -0.00002379      -0.000000000       0.000003004             1
      11      -0.00002379       0.000000000       0.000001269             1
      12      -0.00002379       0.000000000       0.000000395             1

    CHF Iterations converged


    Iter     Energy [mEh]          dE [mEh]         Residual      Time [s]
       1      -0.00002581       0.000025809       0.047006698             0
       2      -0.00002351      -0.000002294       0.011073615             0
       3      -0.00002508       0.000001563       0.005718495             0
       4      -0.00002566       0.000000579       0.001303825             1
       5      -0.00002559      -0.000000064       0.000729577             1
       6      -0.00002556      -0.000000037       0.000242871             1
       7      -0.00002557       0.000000012       0.000084003             1
       8      -0.00002557       0.000000001       0.000030474             1
       9      -0.00002557      -0.000000001       0.000008218             1
      10      -0.00002557      -0.000000000       0.000002117             1
      11      -0.00002557       0.000000000       0.000000812             1

    CHF Iterations converged

    Ind20,r (A<-B)      =    -0.000000023788 [Eh]
    Ind20,r (B<-A)      =    -0.000000025569 [Eh]
    Ind20,r             =    -0.000000049357 [Eh]
    Exch-Ind20,r (A<-B) =     0.000000000000 [Eh]
    Exch-Ind20,r (B<-A) =     0.000000000000 [Eh]
    Exch-Ind20,r        =     0.000000000000 [Eh]
    Disp20              =    -0.000000323881 [Eh]
    Disp20 (SS)         =    -0.000000161941 [Eh]
    Disp20 (OS)         =    -0.000000161941 [Eh]
    Exch-Disp20         =     0.000000000000 [Eh]
    Exch-Disp20 (SS)    =     0.000000000000 [Eh]
    Exch-Disp20 (OS)    =     0.000000000000 [Eh]

    SAPT Results 
  --------------------------------------------------------------------------------------------------------
    Electrostatics                 -0.02199704 [mEh]      -0.01380335 [kcal/mol]      -0.05775322 [kJ/mol]
      Elst10,r                     -0.02199704 [mEh]      -0.01380335 [kcal/mol]      -0.05775322 [kJ/mol]

    Exchange                        0.00000000 [mEh]       0.00000000 [kcal/mol]       0.00000000 [kJ/mol]
      Exch10                        0.00000000 [mEh]       0.00000000 [kcal/mol]       0.00000000 [kJ/mol]
      Exch10(S^2)                   0.00000000 [mEh]       0.00000000 [kcal/mol]       0.00000000 [kJ/mol]

    Induction                      -0.00005112 [mEh]      -0.00003208 [kcal/mol]      -0.00013422 [kJ/mol]
      Ind20,r                      -0.00004936 [mEh]      -0.00003097 [kcal/mol]      -0.00012959 [kJ/mol]
      Exch-Ind20,r                  0.00000000 [mEh]       0.00000000 [kcal/mol]       0.00000000 [kJ/mol]
      delta HF,r (2)               -0.00000176 [mEh]      -0.00000111 [kcal/mol]      -0.00000463 [kJ/mol]

    Dispersion                     -0.00032388 [mEh]      -0.00020324 [kcal/mol]      -0.00085035 [kJ/mol]
      Disp20                       -0.00032388 [mEh]      -0.00020324 [kcal/mol]      -0.00085035 [kJ/mol]
      Exch-Disp20                   0.00000000 [mEh]       0.00000000 [kcal/mol]       0.00000000 [kJ/mol]
      Disp20 (SS)                  -0.00016194 [mEh]      -0.00010162 [kcal/mol]      -0.00042518 [kJ/mol]
      Disp20 (OS)                  -0.00016194 [mEh]      -0.00010162 [kcal/mol]      -0.00042518 [kJ/mol]
      Exch-Disp20 (SS)              0.00000000 [mEh]       0.00000000 [kcal/mol]       0.00000000 [kJ/mol]
      Exch-Disp20 (OS)              0.00000000 [mEh]       0.00000000 [kcal/mol]       0.00000000 [kJ/mol]

  Total HF                         -0.02204816 [mEh]      -0.01383543 [kcal/mol]      -0.05788744 [kJ/mol]
  Total SAPT0                      -0.02237204 [mEh]      -0.01403867 [kcal/mol]      -0.05873779 [kJ/mol]

  Special recipe for scaled SAPT0 (see Manual):
    Electrostatics sSAPT0          -0.02199704 [mEh]      -0.01380335 [kcal/mol]      -0.05775322 [kJ/mol]
    Exchange sSAPT0                 0.00000000 [mEh]       0.00000000 [kcal/mol]       0.00000000 [kJ/mol]
    Induction sSAPT0               -0.00005112 [mEh]      -0.00003208 [kcal/mol]      -0.00013422 [kJ/mol]
    Dispersion sSAPT0              -0.00032388 [mEh]      -0.00020324 [kcal/mol]      -0.00085035 [kJ/mol]
  Total sSAPT0                     -0.02237204 [mEh]      -0.01403867 [kcal/mol]      -0.05873779 [kJ/mol]
  --------------------------------------------------------------------------------------------------------

*** tstop() called on ds1 at Tue Sep 14 16:23:11 2021
Module time:
	user time   =      45.27 seconds =       0.75 minutes
	system time =       3.82 seconds =       0.06 minutes
	total time  =          9 seconds =       0.15 minutes
Total time:
	user time   =     100.37 seconds =       1.67 minutes
	system time =       5.06 seconds =       0.08 minutes
	total time  =         21 seconds =       0.35 minutes


Warning! sapt0 does not have an associated derived wavefunction.The returned wavefunction is the dimer SCF wavefunction.


    Psi4 stopped on: Tuesday, 14 September 2021 04:23PM
    Psi4 wall time for execution: 0:00:21.48

*** Psi4 exiting successfully. Buy a developer a beer!
