
Host: ds1

Timers On : Tue Sep 14 13:07:19 2021
Timers Off: Tue Sep 14 13:07:27 2021

Wall Time:        8.10 seconds

                                                       Time (seconds)
Module                                       User      System        Wall        Calls

--------------------------------------------------------------------------------------

**************************************************************************************
