Generated by Psi4
     FORCE                           RHF                      DEF2-SVP
Number of atoms                            I                9
Charge                                     I                0
Multiplicity                               I                1
Number of electrons                        I               36
Number of alpha electrons                  I               18
Number of beta electrons                   I               18
Number of basis functions                  I               90
Number of independent functions            I               90
Atomic numbers                             I   N=           9
           6           6           7           1           6           7
           1           1           1
Nuclear charges                            R   N=           9
  6.00000000e+00  6.00000000e+00  7.00000000e+00  1.00000000e+00  6.00000000e+00
  7.00000000e+00  1.00000000e+00  1.00000000e+00  1.00000000e+00
Current cartesian coordinates              R   N=          27
  1.26718530e+00  3.44409737e-04 -1.78418985e+00 -1.33031619e+00  1.15979758e-03
 -1.78457338e+00 -1.99780083e+00  6.30027400e-04  7.18155605e-01 -3.77831156e+00
  1.35449675e-03  1.41195993e+00  1.75620100e-01  8.44622688e-04  2.08892837e+00
  2.17461920e+00 -2.96101906e-03  6.32871466e-01  2.52445545e+00  2.01374562e-04
 -3.41460005e+00 -2.71882365e+00  2.19656361e-03 -3.29839626e+00  1.76513762e-01
  6.68063247e-04  4.14953320e+00
Integer atomic weights                     I   N=           9
          12          12          14           1          12          14
           1           1           1
Real atomic weights                        R   N=           9
  1.20000000e+01  1.20000000e+01  1.40030740e+01  1.00782503e+00  1.20000000e+01
  1.40030740e+01  1.00782503e+00  1.00782503e+00  1.00782503e+00
Number of primitive shells                 I               80
Number of contracted shells                I               42
Pure/Cartesian d shells                    I                0
Pure/Cartesian f shells                    I                0
Highest angular momentum                   I                2
Largest degree of contraction              I                5
Shell types                                I   N=          42
           0           0           0           1           1          -2
           0           0           0           1           1          -2
           0           0           0           1           1          -2
           0           0           1           0           0           0
           1           1          -2           0           0           0
           1           1          -2           0           0           1
           0           0           1           0           0           1
Number of primitives per shell             I   N=          42
           5           1           1           3           1           1
           5           1           1           3           1           1
           5           1           1           3           1           1
           3           1           1           5           1           1
           3           1           1           5           1           1
           3           1           1           3           1           1
           3           1           1           3           1           1
Shell to atom map                          I   N=          42
           1           1           1           1           1           1
           2           2           2           2           2           2
           3           3           3           3           3           3
           4           4           4           5           5           5
           5           5           5           6           6           6
           6           6           6           7           7           7
           8           8           8           9           9           9
Primitive exponents                        R   N=          80
  1.23840169e+03  1.86290050e+02  4.22511763e+01  1.16765579e+01  3.59305065e+00
  4.02451474e-01  1.30901827e-01  9.46809706e+00  2.01035451e+00  5.47710047e-01
  1.52686138e-01  8.00000000e-01  1.23840169e+03  1.86290050e+02  4.22511763e+01
  1.16765579e+01  3.59305065e+00  4.02451474e-01  1.30901827e-01  9.46809706e+00
  2.01035451e+00  5.47710047e-01  1.52686138e-01  8.00000000e-01  1.71284159e+03
  2.57648127e+02  5.84582459e+01  1.61983679e+01  5.00526008e+00  5.87318566e-01
  1.87645923e-01  1.35714702e+01  2.92573729e+00  7.99277508e-01  2.19543480e-01
  1.00000000e+00  1.30107010e+01  1.96225720e+00  4.44537960e-01  1.21949620e-01
  8.00000000e-01  1.23840169e+03  1.86290050e+02  4.22511763e+01  1.16765579e+01
  3.59305065e+00  4.02451474e-01  1.30901827e-01  9.46809706e+00  2.01035451e+00
  5.47710047e-01  1.52686138e-01  8.00000000e-01  1.71284159e+03  2.57648127e+02
  5.84582459e+01  1.61983679e+01  5.00526008e+00  5.87318566e-01  1.87645923e-01
  1.35714702e+01  2.92573729e+00  7.99277508e-01  2.19543480e-01  1.00000000e+00
  1.30107010e+01  1.96225720e+00  4.44537960e-01  1.21949620e-01  8.00000000e-01
  1.30107010e+01  1.96225720e+00  4.44537960e-01  1.21949620e-01  8.00000000e-01
  1.30107010e+01  1.96225720e+00  4.44537960e-01  1.21949620e-01  8.00000000e-01
Contraction coefficients                   R   N=          80
  5.51736505e-03  4.10888286e-02  1.82253821e-01  4.68284594e-01  4.45758173e-01
  1.00000000e+00  1.00000000e+00  5.68883320e-02  3.12940593e-01  7.60650165e-01
  1.00000000e+00  1.00000000e+00  5.51736505e-03  4.10888286e-02  1.82253821e-01
  4.68284594e-01  4.45758173e-01  1.00000000e+00  1.00000000e+00  5.68883320e-02
  3.12940593e-01  7.60650165e-01  1.00000000e+00  1.00000000e+00 -5.44779958e-03
 -4.06271746e-02 -1.81119623e-01 -4.68439756e-01 -4.46168463e-01  1.00000000e+00
  1.00000000e+00 -5.88481170e-02 -3.20246248e-01 -7.53282265e-01  1.00000000e+00
  1.00000000e+00  3.34854848e-02  2.34721871e-01  8.13770285e-01  1.00000000e+00
  1.00000000e+00  5.51736505e-03  4.10888286e-02  1.82253821e-01  4.68284594e-01
  4.45758173e-01  1.00000000e+00  1.00000000e+00  5.68883320e-02  3.12940593e-01
  7.60650165e-01  1.00000000e+00  1.00000000e+00 -5.44779958e-03 -4.06271746e-02
 -1.81119623e-01 -4.68439756e-01 -4.46168463e-01  1.00000000e+00  1.00000000e+00
 -5.88481170e-02 -3.20246248e-01 -7.53282265e-01  1.00000000e+00  1.00000000e+00
  3.34854848e-02  2.34721871e-01  8.13770285e-01  1.00000000e+00  1.00000000e+00
  3.34854848e-02  2.34721871e-01  8.13770285e-01  1.00000000e+00  1.00000000e+00
  3.34854848e-02  2.34721871e-01  8.13770285e-01  1.00000000e+00  1.00000000e+00
Coordinates of each shell                  R   N=         126
  1.26718530e+00  3.44409737e-04 -1.78418985e+00  1.26718530e+00  3.44409737e-04
 -1.78418985e+00  1.26718530e+00  3.44409737e-04 -1.78418985e+00  1.26718530e+00
  3.44409737e-04 -1.78418985e+00  1.26718530e+00  3.44409737e-04 -1.78418985e+00
  1.26718530e+00  3.44409737e-04 -1.78418985e+00 -1.33031619e+00  1.15979758e-03
 -1.78457338e+00 -1.33031619e+00  1.15979758e-03 -1.78457338e+00 -1.33031619e+00
  1.15979758e-03 -1.78457338e+00 -1.33031619e+00  1.15979758e-03 -1.78457338e+00
 -1.33031619e+00  1.15979758e-03 -1.78457338e+00 -1.33031619e+00  1.15979758e-03
 -1.78457338e+00 -1.99780083e+00  6.30027400e-04  7.18155605e-01 -1.99780083e+00
  6.30027400e-04  7.18155605e-01 -1.99780083e+00  6.30027400e-04  7.18155605e-01
 -1.99780083e+00  6.30027400e-04  7.18155605e-01 -1.99780083e+00  6.30027400e-04
  7.18155605e-01 -1.99780083e+00  6.30027400e-04  7.18155605e-01 -3.77831156e+00
  1.35449675e-03  1.41195993e+00 -3.77831156e+00  1.35449675e-03  1.41195993e+00
 -3.77831156e+00  1.35449675e-03  1.41195993e+00  1.75620100e-01  8.44622688e-04
  2.08892837e+00  1.75620100e-01  8.44622688e-04  2.08892837e+00  1.75620100e-01
  8.44622688e-04  2.08892837e+00  1.75620100e-01  8.44622688e-04  2.08892837e+00
  1.75620100e-01  8.44622688e-04  2.08892837e+00  1.75620100e-01  8.44622688e-04
  2.08892837e+00  2.17461920e+00 -2.96101906e-03  6.32871466e-01  2.17461920e+00
 -2.96101906e-03  6.32871466e-01  2.17461920e+00 -2.96101906e-03  6.32871466e-01
  2.17461920e+00 -2.96101906e-03  6.32871466e-01  2.17461920e+00 -2.96101906e-03
  6.32871466e-01  2.17461920e+00 -2.96101906e-03  6.32871466e-01  2.52445545e+00
  2.01374562e-04 -3.41460005e+00  2.52445545e+00  2.01374562e-04 -3.41460005e+00
  2.52445545e+00  2.01374562e-04 -3.41460005e+00 -2.71882365e+00  2.19656361e-03
 -3.29839626e+00 -2.71882365e+00  2.19656361e-03 -3.29839626e+00 -2.71882365e+00
  2.19656361e-03 -3.29839626e+00  1.76513762e-01  6.68063247e-04  4.14953320e+00
  1.76513762e-01  6.68063247e-04  4.14953320e+00  1.76513762e-01  6.68063247e-04
  4.14953320e+00
Total Energy                               R     -2.257971269481670e+02
Alpha Orbital Energies                     R   N=          90
 -1.44537928e+01 -1.43646204e+01 -1.02824609e+01 -1.02612562e+01 -1.02410242e+01
 -1.04058953e+00 -8.88654199e-01 -7.58041647e-01 -6.31782730e-01 -6.05613607e-01
 -5.75341440e-01 -4.55221904e-01 -4.52097121e-01 -4.49812606e-01 -4.17270536e-01
 -2.98556342e-01 -2.77091975e-01 -2.42840329e-01  3.24131086e-02  5.74409618e-02
  7.56385375e-02  1.14640505e-01  1.21222645e-01  1.41748543e-01  2.19062991e-01
  2.35739911e-01  2.62828082e-01  3.21907575e-01  3.68027572e-01  4.11673766e-01
  4.22438104e-01  4.90725756e-01  4.96625924e-01  5.40329935e-01  5.45688625e-01
  5.74111742e-01  5.91698172e-01  6.34628278e-01  6.54819233e-01  7.09048140e-01
  7.15680214e-01  7.52666625e-01  7.84362939e-01  8.09034939e-01  8.45549775e-01
  8.69256265e-01  8.98713531e-01  9.73155607e-01  1.03146121e+00  1.10585318e+00
  1.17571139e+00  1.20376753e+00  1.22021048e+00  1.28918800e+00  1.33811625e+00
  1.35555978e+00  1.38305505e+00  1.53536507e+00  1.62495862e+00  1.65946015e+00
  1.69717058e+00  1.75233773e+00  1.76030954e+00  1.82942996e+00  1.91236797e+00
  1.91516018e+00  1.93015612e+00  1.98089851e+00  1.98964102e+00  2.04646583e+00
  2.09269437e+00  2.16362479e+00  2.23994518e+00  2.38510275e+00  2.39546819e+00
  2.48404783e+00  2.49925247e+00  2.51243391e+00  2.68612962e+00  2.73771845e+00
  2.75311420e+00  2.80384715e+00  2.82271786e+00  2.88421796e+00  2.91816052e+00
  2.98790349e+00  3.13021676e+00  3.37400505e+00  3.42187176e+00  3.63609311e+00
Alpha MO coefficients                      R   N=        8100
  4.54948752e-05 -1.53885724e-04  1.30207802e-02 -1.84530111e-04 -2.91478764e-07
 -1.75165797e-04 -4.57786565e-03  9.85724966e-07  4.69283197e-03 -2.97776854e-04
  4.56098348e-04 -8.28766651e-08  3.32581362e-06 -2.59014539e-07 -2.71921652e-04
 -1.27986477e-04 -2.06619067e-02 -3.15725366e-04 -3.51059954e-07  8.96904120e-04
 -4.65422428e-03  4.21354492e-06 -9.55757852e-03  1.52669578e-03 -8.38054339e-04
 -5.40766514e-07 -1.01585792e-04  3.80255453e-07  9.88391845e-01 -4.64561758e-02
  4.18641541e-02 -6.57424683e-05  2.02442890e-06  5.77733287e-05  9.59486536e-03
  1.01611321e-06 -4.09807549e-03  1.96778806e-04  9.07298300e-04 -3.27996982e-07
 -1.79989112e-03  1.09304485e-06  4.57614581e-03 -2.18220768e-03  3.69211013e-03
 -2.05587867e-06 -1.40382731e-03 -2.81890587e-04 -1.84868686e-04 -1.23145587e-02
 -8.08149688e-04 -1.58790377e-07 -4.59769283e-04  4.56360171e-03  2.65047910e-06
  5.72149041e-03 -3.39787568e-04  1.42799951e-03 -2.09066617e-07  1.07398335e-03
  9.36021914e-07 -9.98452976e-05  9.12158334e-04 -2.57447037e-03  1.86979441e-04
 -7.15985139e-07 -1.21417154e-04  3.81412352e-04 -3.53197742e-06  8.79969736e-04
 -1.49226975e-04 -1.74458432e-04 -3.53938343e-07 -1.89607034e-04  8.87754262e-08
  6.77389990e-04  3.69132898e-04 -8.37487529e-05 -8.84331377e-08  9.17716913e-05
 -4.37409022e-04 -7.36196445e-04 -1.81367256e-04  2.82934971e-08  3.27659622e-04
 -7.75841171e-05 -2.05591686e-04 -4.42820730e-04 -3.71563234e-07 -1.05574323e-04
  2.53755830e-04  3.09042434e-04  2.30363309e-02 -5.42590405e-04  1.94217767e-06
 -9.09736594e-04 -2.86352331e-03 -1.19221388e-05  1.11063551e-02 -1.24644618e-03
 -1.29320541e-03  3.21677519e-06  4.41126268e-05  1.96105559e-06 -2.26381376e-05
  1.70762662e-04 -1.35996646e-02 -1.63013885e-04  3.87541594e-07  7.57503670e-05
 -5.55008597e-03  3.05697897e-06 -6.78301818e-03  1.76843746e-04  1.34782821e-04
 -1.25357622e-06 -5.23789193e-05 -2.23841400e-07 -2.22451306e-04 -1.03415622e-03
  4.90407239e-03  2.29192417e-04 -9.44884074e-09  8.62161760e-05  1.00599055e-03
  1.71020506e-06 -1.19838707e-03  1.49117820e-04 -1.50046642e-04  7.68030768e-07
  2.10528131e-04 -6.75190976e-07 -5.32341177e-05  5.53085398e-04  4.79025441e-05
 -5.53087873e-08  5.91046768e-05  3.49208744e-04 -7.64843986e-05  1.36663508e-02
 -1.13728489e-03  2.96972699e-06  7.59588885e-04  6.22192964e-03 -1.55417784e-05
 -5.86966606e-03  2.67054753e-04  1.61536271e-03 -2.38586480e-06 -1.16134525e-03
  5.09483739e-06 -9.88746778e-01  4.48273120e-02 -4.66871416e-02  3.77269971e-03
 -8.01581947e-06  7.85134902e-04  1.02569324e-02 -2.24914906e-05  3.26290360e-03
  4.47612588e-04 -4.39533325e-04  3.66905415e-07  3.14297750e-04 -1.00415901e-06
  1.58411479e-04  6.79429324e-04 -2.18158391e-04  1.27453279e-06 -4.44297230e-04
 -8.77231388e-04 -1.25869699e-03 -8.81569299e-05  1.42540896e-07  7.17730797e-05
 -2.43629746e-05  7.46620167e-05 -6.05605908e-04  1.74253550e-06  1.01469986e-04
  1.75550053e-04  7.66708064e-04  1.07214614e-03  4.31597941e-04 -7.99883383e-07
  8.15746614e-04 -1.48391094e-03 -1.53010993e-06  4.31119661e-03  4.25321342e-04
 -1.14407756e-04 -6.93446879e-07  7.64526614e-07  1.15969957e-06  6.12615955e-04
  9.05222768e-04  1.94318124e-03 -3.16558155e-04  3.82120607e-07  8.23886104e-04
  4.15140466e-03 -3.52590845e-06  2.63916299e-03  4.83796286e-04  3.78149869e-04
 -6.88984537e-07 -5.96398218e-05 -4.82345433e-07 -6.38043449e-05  8.42289308e-04
 -1.30503813e-02  5.07059500e-04  2.31855304e-07  9.16854490e-04 -1.17680963e-02
  8.66243100e-07 -7.66869222e-04 -1.57770170e-04 -1.01948455e-03 -2.86274917e-08
 -1.30305430e-03 -7.73086958e-07 -1.79789498e-03 -4.75145848e-04  6.05351238e-04
  6.60958574e-07  7.87698075e-04  9.88308466e-01  4.83371860e-02 -4.51045599e-03
 -5.45297523e-04 -4.89685002e-06 -7.53346730e-04  2.51637978e-04 -1.06742612e-05
 -1.04228103e-02  2.43979658e-03 -1.41083428e-04  4.02882801e-06  2.12029862e-03
 -3.58329532e-06  3.23821006e-05  7.96517708e-04 -1.62581394e-02 -9.92171399e-04
  1.91066754e-06  1.03456766e-03  9.28237328e-03 -1.76939905e-05 -8.16229052e-04
 -8.68260283e-05  8.30030650e-04 -1.07263289e-06 -1.25978994e-03  5.49850245e-06
  6.29199392e-04  1.49329501e-03  2.11921692e-05  6.44145259e-08 -1.55336847e-04
  6.27748812e-04  1.72360832e-03 -2.06255921e-04  1.98616509e-07 -4.92925863e-05
 -4.36022799e-03  7.59033069e-03  4.39313967e-07  2.95469271e-07  3.16444048e-03
  1.44633535e-02 -2.49918062e-03 -1.79177314e-04  2.57607507e-03 -3.36999187e-07
  4.77823073e-04  2.46437166e-03  7.76742242e-07 -6.66636722e-03  5.06329268e-04
  3.16684059e-04  3.59310541e-07 -1.53459732e-03  1.28688363e-06  9.88267984e-01
  4.74194577e-02 -1.29455830e-02 -7.70770773e-04  3.62466099e-07  1.16806068e-03
  1.16033904e-04 -4.36542701e-06  8.48182143e-03  1.50746338e-03  1.42781428e-03
 -2.36907427e-06  2.38113903e-03 -2.22184384e-06 -7.85736857e-05  9.91335871e-04
 -1.51067376e-02 -7.58990028e-05  4.73635765e-07 -7.72991845e-04 -7.08192723e-03
 -4.90142456e-07  9.07318202e-03 -1.46193149e-03  6.50410325e-04  8.44299305e-07
 -6.30885360e-04 -2.33699343e-07 -1.30382451e-03 -5.79078347e-04 -4.23919078e-05
  5.71374166e-07 -9.68108554e-04 -8.31017945e-04  7.56410211e-04  9.41328059e-03
 -2.93098949e-04 -5.07762294e-07 -3.43761227e-04  2.43932521e-03 -4.46997473e-06
 -1.08308044e-02  4.93791459e-04  3.47062208e-04  4.67280849e-07  8.08099815e-05
 -8.59775833e-07  8.82324466e-05  6.86822491e-04 -5.13869041e-03  1.55500398e-04
 -9.27154880e-07  5.65703605e-05  1.53300664e-03 -5.71956211e-06 -2.06113950e-03
  6.15688132e-07  2.58030820e-04  3.54514332e-08  1.16011684e-04  2.05890375e-07
 -7.95295095e-04 -2.25744729e-03 -4.20390476e-04  1.34490106e-07  3.02544452e-04
 -4.63616711e-03  7.42110904e-03 -1.74552972e-03  1.81302518e-06 -2.71396411e-03
  1.25501068e-03  2.91102517e-03 -2.05311685e-04  5.35097404e-07  2.13275663e-04
  9.88283939e-01  4.73084543e-02 -1.65524849e-02  2.14320418e-04 -2.76958275e-06
  5.31627436e-04  2.73780878e-03 -1.01875320e-05  7.68887913e-03  1.55104483e-03
 -1.07487883e-03 -3.87692154e-06  2.26181232e-03 -1.81661938e-06 -1.36930175e-02
 -3.58516138e-03  4.51588238e-03 -2.48174340e-03  9.68387111e-07  5.21629885e-04
 -1.71669052e-03  3.06679152e-06 -6.55710374e-03  5.12592861e-04 -2.94841315e-04
  3.49749176e-08 -1.65590836e-03  7.65537837e-07  1.20699365e-04  1.07911064e-03
 -4.60343678e-03 -2.70250579e-04 -8.19101964e-07  1.78593153e-04 -2.57782636e-03
 -3.48882843e-06 -1.72327513e-03 -2.04697228e-05 -3.24735154e-04  2.57547990e-07
  7.36561162e-05 -4.42640514e-07 -1.93737493e-04 -4.84931447e-04 -1.22209652e-04
  7.48575627e-07  2.40456182e-04 -3.68265234e-04  9.42266688e-04  1.06649114e-02
  2.36245060e-04 -8.41303355e-07 -4.24618992e-04 -1.73082490e-03 -4.73410502e-07
 -9.97338296e-03  3.04810008e-04 -1.37339828e-04  9.34096875e-07  1.30943915e-04
  8.25777829e-07 -2.50812465e-05  1.40642427e-03 -1.67936591e-02 -2.75293084e-04
  8.55103682e-07 -9.45130595e-04  6.51301582e-03 -1.82218349e-05  6.50562975e-03
 -1.32701886e-03 -9.37071306e-04  4.06075124e-06 -7.33960212e-04  3.79163823e-06
 -4.56991673e-03  6.97070919e-03  1.42418853e-03  5.55429607e-07 -2.80409299e-03
 -7.78148376e-04 -3.10621104e-03  3.47678600e-04 -2.13795464e-07  3.67934409e-04
  1.03846919e-03  2.27591114e-03  1.27389204e-04  9.77834553e-08  1.78766573e-04
  7.92496806e-02 -1.47756643e-01 -3.14139869e-02  3.01888589e-02  4.71873471e-05
 -7.13806023e-02  1.62069585e-02 -9.33396334e-06 -6.50010377e-03 -8.04751154e-03
  2.71706918e-03  1.31400911e-05 -5.51173770e-03  4.78584255e-06  9.82624172e-02
 -1.82014906e-01 -1.93230914e-04 -1.83961259e-02  3.26363996e-05 -9.55384664e-02
  9.29133161e-03 -2.41144509e-06 -3.04582214e-03 -1.12463434e-02 -1.14318438e-04
  6.34413658e-06 -5.67621255e-03  3.81322484e-06 -1.90414569e-01 -3.74212057e-01
 -1.74157827e-01  7.23306049e-02  2.66102636e-05 -2.03251559e-02 -4.39428517e-02
 -3.85927413e-07  1.42113667e-02 -3.53021310e-03  5.77839581e-04  2.31407589e-07
 -1.02299713e-02 -6.20026971e-08 -8.41254463e-02 -5.47858095e-03 -1.17892321e-02
  3.64760431e-06  4.47223974e-03  1.29150267e-01 -2.44917284e-01 -3.74494823e-03
  2.62874053e-02  9.81594340e-05  1.07225403e-01  7.54338574e-03 -1.44622231e-05
 -1.63658326e-04 -7.53748407e-03 -2.58431876e-03 -1.68792927e-05 -1.12111970e-02
  1.43062985e-05 -1.14094804e-01 -2.18317581e-01 -1.04281505e-01 -9.31013438e-02
  1.67259793e-04 -1.39331424e-02  2.85421020e-02 -5.16978916e-05  4.17216829e-03
 -3.68443110e-04  9.91784614e-05  3.10282680e-06 -8.48140703e-03  3.01318795e-05
 -1.30716701e-02 -4.05473712e-03  9.65575872e-04  1.09454983e-06 -2.07935591e-03
 -1.85637855e-02 -1.52470190e-03 -2.43363431e-03  1.71222382e-06 -2.91269005e-03
 -2.49798058e-02 -4.98754755e-03 -1.39074992e-05  2.26670062e-06  4.63126804e-03
  9.46416252e-02 -1.84864037e-01 -2.76626784e-02 -3.76245929e-02  1.25668820e-04
 -1.01005097e-01  7.53028430e-03  8.66990389e-06 -2.79942005e-02 -1.49823592e-02
 -5.04341552e-03  2.56522290e-05 -3.69109247e-04  5.54554576e-06 -4.27664833e-02
  8.45156762e-02  2.35814363e-02 -7.04185950e-02  2.06608848e-05  6.52660287e-02
 -1.60126903e-02  8.19971384e-06  1.58337130e-02  1.02962907e-02 -9.06917504e-03
  1.68495469e-06 -2.28443673e-03  6.22615479e-06  1.73280898e-01  3.55550777e-01
  1.60407129e-01  4.77345979e-02 -8.20058026e-05  8.79963879e-03 -2.66218522e-03
  2.05651065e-05 -1.04581487e-02  5.85053356e-03 -1.02223559e-04 -3.44201980e-07
  1.94268260e-03  3.63061816e-06  1.41990836e-01  6.26319118e-03  1.70012243e-02
 -5.10832115e-06 -7.08165666e-03  4.67629795e-02 -9.67090430e-02 -1.35681957e-02
 -1.68283475e-01  1.85358018e-04  5.27944239e-02 -3.16947808e-02  3.39443619e-05
  1.90083569e-02 -7.28522561e-03  1.95882508e-02 -2.58824138e-05  3.08382336e-05
  2.43559347e-05 -1.92455352e-01 -3.86794472e-01 -1.57454371e-01 -1.04970552e-01
  2.55742760e-04 -2.92919162e-02  2.53447425e-02 -5.29588312e-05  1.61950373e-02
 -4.92029866e-03 -1.39949450e-04  6.78379727e-06 -5.42590262e-03  2.94357414e-05
 -3.29360996e-02 -1.50868201e-02  1.95247486e-03  1.16866254e-06 -4.45701865e-03
  2.23348936e-02  1.64993767e-03  1.88183491e-03 -1.60687091e-06  3.02734046e-03
 -9.65233948e-03 -8.39881452e-03 -1.17707851e-03  1.21832865e-06  8.70583618e-04
  1.41623500e-01 -2.77167938e-01 -7.06055710e-02  9.19512552e-02  1.74744181e-06
  1.35801850e-02  2.73944739e-02 -1.99186982e-05  3.54016866e-04  4.81419448e-03
 -3.60314688e-04  6.85902055e-06 -1.09021051e-02  9.49536721e-06  1.80877089e-01
 -3.58719144e-01 -9.13152693e-02 -6.15854594e-02  3.16882705e-05 -1.83529033e-02
 -2.70748810e-02  9.09453335e-06 -6.93661724e-04 -7.08603849e-04  1.49802935e-03
  4.64908130e-06 -1.04409660e-02  5.63099480e-06  3.59949199e-02  7.61758613e-02
  2.27792245e-02 -1.87112677e-02  1.53929737e-05 -2.07499254e-01  1.10089490e-02
 -1.74021829e-05  9.10203829e-02 -6.20357757e-03  1.02303643e-02  5.54474525e-06
  3.39297234e-03 -1.96642283e-06  6.28290405e-02  4.72711372e-03  8.23014323e-03
 -2.71031052e-06  1.70714006e-03 -1.49633722e-01  3.03486281e-01  8.92370356e-02
 -1.47136516e-02 -1.39184223e-04 -1.33321853e-03 -8.54218108e-03 -9.03145670e-06
 -1.71463906e-02 -6.75714758e-03 -1.40638210e-03  1.37679191e-05  1.23735510e-02
 -1.76792696e-05  3.98249562e-02  8.41517821e-02  2.76239178e-02  4.14217364e-02
 -4.78325263e-05 -1.18517423e-01 -6.97088666e-03 -1.63354081e-06  4.61122022e-02
 -4.33044649e-03 -1.28810477e-02  2.33085907e-05  2.53256338e-03 -7.58800293e-06
 -7.48604765e-02 -1.44279943e-02  7.09343859e-03 -4.09350464e-07 -6.73842583e-03
 -1.03080120e-01 -2.13063767e-02 -8.43460724e-03  6.33581790e-06 -8.92558242e-03
  1.02310797e-01  2.18601087e-02 -2.88125766e-04 -9.87576138e-08 -1.21154701e-02
  6.11739733e-02 -1.31551046e-01 -1.01070272e-01 -1.77449363e-01  2.29773947e-04
 -6.26199624e-02 -1.77144537e-02  4.95915941e-05 -1.87891695e-02 -8.88512238e-03
 -1.11026244e-02  2.88048549e-05  2.58947607e-03  1.08486583e-05 -8.09836075e-02
  1.74551507e-01  8.25819848e-02  6.19026652e-02  1.63183892e-05  3.08335772e-02
  5.66871371e-02 -1.25048000e-05  1.53912568e-02  9.10150226e-03  1.10323893e-02
 -4.13679791e-06 -1.01072304e-03  3.30815441e-06 -5.58360125e-02 -1.13569369e-01
 -6.96346145e-02 -3.48010902e-01  4.26495170e-05  7.71546261e-02  1.16453255e-01
 -3.30252121e-07 -1.68332512e-02  2.42259253e-03  3.32089101e-03 -4.22381013e-06
 -2.27121935e-04  1.21803224e-05 -3.08614148e-01 -5.80337746e-02 -2.44284812e-02
  1.17232008e-05  1.10743985e-02 -1.08404965e-01  2.34746307e-01  6.53290468e-02
 -4.75760578e-02 -2.71659933e-05 -3.04787129e-02  5.13968252e-03  1.21546832e-06
 -3.01903540e-02  1.01573853e-02  1.16367994e-02  2.57920502e-06  3.60782243e-04
 -4.17129294e-06 -9.14056920e-02 -1.96784111e-01 -1.28990302e-01  6.03558252e-02
  1.71912243e-05 -1.48160460e-01 -2.69958527e-02 -1.31818048e-05  4.93092123e-02
 -9.23629042e-03 -6.21724720e-03  2.26998280e-05  6.57874011e-03 -1.37961452e-05
 -7.99265966e-02 -1.37126862e-02  2.12903682e-03  1.91989998e-06 -7.10728541e-03
  4.06158971e-02  2.18563282e-02  1.42177927e-03 -3.13439459e-07  2.87020193e-03
  8.22572023e-02  3.15524086e-02 -2.08926715e-03  1.46865857e-06 -6.21244520e-03
  1.46430942e-01 -3.02077976e-01 -1.19986880e-01 -1.37544534e-02  1.07693075e-05
  7.49637872e-02  7.07358771e-03 -7.27176720e-06 -2.41349279e-03  5.53213747e-04
 -3.31207594e-04  6.29913493e-06 -4.41190440e-03  1.06925055e-05 -5.89133761e-02
  1.23189159e-01  4.47909492e-02 -2.12190204e-01  1.26377999e-05  7.95419809e-02
 -5.14139969e-02 -1.41263188e-06  3.58382184e-02  1.04580026e-02 -6.80893532e-03
 -1.01298251e-05 -2.02964558e-03  3.10169047e-06 -2.89457142e-03 -5.98731540e-03
 -2.41749372e-02  1.38473930e-01  4.79405141e-05  2.71863679e-01 -7.00321701e-02
 -2.69231164e-05 -1.31328809e-01  3.56828924e-03 -3.34204405e-03 -1.06424187e-05
 -2.03769585e-03 -1.07244397e-05  1.90115514e-02  2.99991833e-03 -1.69374518e-03
 -1.60233839e-06 -8.64683615e-03  2.67394824e-02 -5.14004276e-02  7.44913010e-03
  2.70564652e-01 -2.78992005e-04 -4.40215550e-02  5.90540924e-02 -8.88355089e-05
 -2.37840766e-02  2.91002849e-04 -1.47323138e-02  2.02415751e-05 -2.15810197e-03
 -3.06490390e-05  8.10934406e-02  1.75021127e-01  9.45662380e-02  5.45602803e-02
 -8.17131519e-05 -1.61436258e-01 -1.12066952e-02  1.28072940e-05  5.50889542e-02
 -4.04010865e-03 -9.52190766e-03  2.51010587e-05  1.38991050e-03 -8.64183461e-06
 -1.67111733e-01 -4.27067894e-02  1.00004631e-02 -2.09206726e-06 -1.05399198e-02
  1.05150970e-01  3.25847409e-02  3.08250343e-03 -5.05885363e-06  8.04742463e-03
 -4.96054559e-02 -1.14528644e-02  3.78266761e-03 -3.63220425e-06  3.68771286e-03
  3.14717115e-02 -6.18835322e-02 -3.20952358e-02  4.50130339e-02 -1.52859356e-04
  1.68206216e-01  3.98909919e-03 -4.37884579e-05  6.78435733e-02  9.06026595e-03
 -5.02245766e-03 -1.53877736e-05 -2.43682862e-03  1.19872877e-07  8.53722546e-02
 -1.74262830e-01 -1.19570936e-01  3.47887165e-02 -1.06687006e-04  2.31708594e-01
  1.60030764e-02 -2.68890044e-05  4.47862780e-02  1.22683130e-02  4.37892417e-03
 -5.63134172e-06 -5.56384383e-03  7.78677045e-07  4.33030220e-02  9.85315622e-02
  9.73384847e-02 -1.76270819e-01  3.52205084e-05  9.09992245e-02  9.02659845e-02
 -1.89675899e-05 -4.53557645e-02 -4.52988005e-03 -4.73900284e-03  1.80217912e-06
  2.79081481e-03  5.06900553e-06 -1.00094360e-01 -2.05547290e-02 -7.44743671e-03
  2.94376043e-06  2.11687285e-03  9.01447313e-02 -1.87113919e-01 -1.16898843e-01
 -1.00453897e-01  6.53256272e-05 -2.26121707e-01 -2.29414886e-03  5.81577884e-06
 -5.50138831e-02  8.89511444e-03  9.65709337e-03  6.05247483e-06 -3.28211850e-03
  1.68276142e-05  2.60074846e-03  7.15493974e-03 -1.88620234e-02  2.86855690e-02
 -3.52679975e-05  1.41913261e-01 -1.62765546e-02 -5.07340823e-06 -5.54610410e-02
 -4.04937204e-03  1.05797665e-02 -2.03708933e-05  3.74174994e-03 -8.52569675e-06
 -8.73197816e-02 -5.36009371e-03  6.53536307e-03 -3.01309539e-06 -4.82693800e-03
 -2.05229693e-01 -4.37416247e-02 -1.21099993e-02  7.80644702e-06 -1.00511513e-02
 -2.24910041e-01 -4.71734841e-02 -8.19024499e-04 -3.13052203e-06  1.74381874e-02
 -1.28810276e-04  2.02154864e-03 -2.94676566e-02 -3.13890766e-01 -1.06530720e-03
  2.55383497e-04 -1.09453718e-01 -5.07863588e-04 -1.55222936e-02 -2.15936169e-03
 -4.56879330e-03 -8.85917326e-05  1.50043603e-03  7.08440710e-05 -1.28021475e-02
  1.97660123e-02  6.34090484e-03  2.59081561e-01 -1.66408702e-03 -1.74981668e-01
  8.10139674e-02 -7.87872982e-04 -4.47484054e-02 -1.59600014e-02  7.26039588e-03
 -1.42239104e-04  6.01264454e-03 -3.34602482e-05 -1.56175292e-02 -4.58337365e-02
 -2.00897880e-02  1.38187516e-01  2.96419440e-03 -2.36755053e-01 -2.57494588e-02
 -1.97622315e-03  1.08757550e-01 -1.16089373e-02 -9.08867843e-03  3.01979778e-05
  7.36618813e-03 -1.04519096e-04  2.05302232e-01  8.09074010e-02  1.27653150e-02
 -1.03443197e-04  7.97348783e-04  1.98028728e-02 -4.19381467e-02 -7.48830891e-02
  9.88095910e-02 -2.32850387e-03 -2.13449102e-01  1.93508300e-02 -1.04036053e-03
 -4.60255190e-02 -7.54612648e-03 -1.09314944e-02  1.80791394e-04  7.45358936e-03
  2.95627656e-05 -1.13832012e-02 -2.53997678e-02  9.25449089e-03  1.71767360e-01
  1.47309767e-03 -1.46872243e-01 -9.07362248e-02 -7.95585426e-04  5.65187697e-02
 -1.33067859e-02  1.26142577e-03  2.89971270e-05  1.00227885e-02  1.04940920e-04
 -1.45504248e-01 -4.80262769e-02  1.50332609e-03 -2.79946244e-05 -8.66198425e-03
 -1.64925585e-02 -3.31847729e-03  4.83207222e-03 -4.38877429e-05 -4.47555789e-03
 -2.01180805e-01 -7.01187731e-02  2.96338560e-03 -6.23529892e-05  1.02424535e-02
  1.72063280e-04 -4.09367857e-04 -2.82297005e-04  2.73428213e-03 -1.71761119e-01
 -3.45185524e-05  1.03646237e-03 -8.21501392e-02 -5.90376516e-05  8.39642330e-06
  6.33824200e-05 -1.34011941e-02 -2.88978182e-05  7.60486297e-03  2.49263737e-05
 -3.55935344e-05  4.16918678e-04 -2.74394804e-03 -2.16998541e-01  4.84534813e-04
 -7.13584406e-04 -1.03292597e-01  2.29130738e-04  1.18700549e-04 -1.39341584e-05
 -1.88103777e-02 -6.16456011e-05 -4.24211560e-03  1.65743513e-04  4.71452178e-04
  1.75874587e-04 -1.58007804e-03  3.72501773e-01  1.19109224e-03  3.84830560e-04
 -2.47235965e-01 -5.01766770e-04  1.04874574e-04  1.16013656e-04  3.50762104e-03
 -5.37786169e-05 -1.19718441e-02 -1.93088717e-03 -7.65513248e-04 -1.10659956e-04
 -1.21367315e-02  2.44447226e-05 -5.60867218e-05  1.34081594e-04  3.50619196e-04
 -1.62712013e-03 -2.61248700e-01  1.32262580e-03 -4.49799546e-04 -1.25841803e-01
  4.21815503e-04  1.58045312e-05  1.28445944e-04  2.04634766e-02 -7.27909198e-05
  6.17639696e-03  2.30112897e-04  4.73716852e-04  4.98824107e-04 -1.16048251e-03
  2.07912771e-01  1.50849113e-03  5.12672240e-04 -1.14366061e-01 -6.72372457e-04
  1.13907848e-04 -3.17170352e-07  2.63892917e-03 -2.01203110e-05  1.74185331e-02
  1.07642005e-03  3.30323578e-04 -7.88616378e-06 -3.94103400e-03  6.82653788e-05
  1.11313573e-03  4.30539232e-04 -1.08591092e-05 -5.81365082e-03  6.89436614e-05
  1.15644089e-03  3.42877805e-04 -3.74710952e-05 -6.74122009e-03 -6.34796930e-05
  5.10260151e-02 -1.11978845e-01 -1.01981122e-01  1.34000805e-01  2.77749576e-04
  9.82576783e-02  5.19968352e-02  1.72582283e-04  1.09410960e-02  7.54680618e-03
  1.41995388e-02  1.52268845e-05 -2.79210363e-03 -3.33931319e-05 -2.21170518e-02
  3.34661169e-02  9.47875542e-02 -2.37477201e-01  8.19619481e-04 -2.72700694e-01
 -4.64259329e-02  3.41225700e-04 -5.10574082e-02  2.31203494e-04  1.84585572e-02
  5.48129479e-05 -2.00477174e-03  7.21537426e-07 -5.05402981e-03 -7.06844399e-03
 -3.82998495e-02 -1.50302814e-01 -1.15124081e-03 -2.20113748e-01  4.99281447e-02