
    -----------------------------------------------------------------------
          Psi4: An Open-Source Ab Initio Electronic Structure Package
                               Psi4 1.9.1 release

                         Git: Rev {} zzzzzzz


    D. G. A. Smith, L. A. Burns, A. C. Simmonett, R. M. Parrish,
    M. C. Schieber, R. Galvelis, P. Kraus, H. Kruse, R. Di Remigio,
    A. Alenaizan, A. M. James, S. Lehtola, J. P. Misiewicz, M. Scheurer,
    R. A. Shaw, J. B. Schriber, Y. Xie, Z. L. Glick, D. A. Sirianni,
    J. S. O'Brien, J. M. Waldrop, A. Kumar, E. G. Hohenstein,
    B. P. Pritchard, B. R. Brooks, H. F. Schaefer III, A. Yu. Sokolov,
    K. Patkowski, A. E. DePrince III, U. Bozkaya, R. A. King,
    F. A. Evangelista, J. M. Turney, T. D. Crawford, C. D. Sherrill,
    J. Chem. Phys. 152(18) 184108 (2020). https://doi.org/10.1063/5.0006002

                            Additional Code Authors
    E. T. Seidl, C. L. Janssen, E. F. Valeev, M. L. Leininger,
    J. F. Gonthier, R. M. Richard, H. R. McAlexander, M. Saitow, X. Wang,
    P. Verma, M. H. Lechner, A. Jiang, S. Behnle, A. G. Heide,
    M. F. Herbst, and D. L. Poole

             Previous Authors, Complete List of Code Contributors,
                       and Citations for Specific Modules
    https://github.com/psi4/psi4/blob/master/codemeta.json
    https://github.com/psi4/psi4/graphs/contributors
    http://psicode.org/psi4manual/master/introduction.html#citing-psifour

    -----------------------------------------------------------------------


    Psi4 started on: Thursday, 24 October 2024 02:43PM

    Process ID: 42891
    Host:       atl1-1-02-009-5-2.pace.gatech.edu
    PSIDATADIR: /storage/coda1/p-jmcdaniel43/0/sparmar32/.conda/envs/p4env/share/psi4
    Memory:     500.0 MiB
    Threads:    8

  ==> Input File <==

--------------------------------------------------------------------------

molecule imidazole {
  0 1
  C    0.671     0.000    -0.944
  C   -0.704     0.001    -0.944
  N   -1.057     0.000     0.380
  H   -1.999     0.001     0.747
  C    0.093     0.000     1.105
  N    1.151    -0.002     0.335
  H    1.336     0.000    -1.807
  H   -1.439     0.001    -1.745
  H    0.093     0.000     2.196
}

set {
basis def2-SVP
}

grad, wfn = energy('pbe0', return_wfn=True)

fw = core.FCHKWriter(wfn)
fchkfile = 'molecule' + '.fchk'
fw.write(fchkfile)

--------------------------------------------------------------------------

Scratch directory: /tmp/
   => Libint2 <=

    Primary   basis highest AM E, G, H:  6, 6, 3
    Auxiliary basis highest AM E, G, H:  7, 7, 4
    Onebody   basis highest AM E, G, H:  -, -, -
    Solid Harmonics ordering:            Gaussian

*** tstart() called on atl1-1-02-009-5-2.pace.gatech.edu
*** at Thu Oct 24 14:43:37 2024

   => Loading Basis Set <=

    Name: DEF2-SVP
    Role: ORBITAL
    Keyword: BASIS
    atoms 1-2, 5 entry C          line    90 file /storage/coda1/p-jmcdaniel43/0/sparmar32/.conda/envs/p4env/share/psi4/basis/def2-svp.gbs
    atoms 3, 6   entry N          line   110 file /storage/coda1/p-jmcdaniel43/0/sparmar32/.conda/envs/p4env/share/psi4/basis/def2-svp.gbs
    atoms 4, 7-9 entry H          line    15 file /storage/coda1/p-jmcdaniel43/0/sparmar32/.conda/envs/p4env/share/psi4/basis/def2-svp.gbs


         ---------------------------------------------------------
                                   SCF
               by Justin Turney, Rob Parrish, Andy Simmonett
                          and Daniel G. A. Smith
                              RKS Reference
                        8 Threads,    500 MiB Core
         ---------------------------------------------------------

  ==> Geometry <==

    Molecular point group: c1
    Full point group: C1

    Geometry (in Angstrom), charge = 0, multiplicity = 1:

       Center              X                  Y                   Z               Mass
    ------------   -----------------  -----------------  -----------------  -----------------
         C            0.670829969128     0.000205629375    -0.944035751907    12.000000000000
         C           -0.704170030872     0.001205629375    -0.944035751907    12.000000000000
         N           -1.057170030872     0.000205629375     0.379964248093    14.003074004430
         H           -1.999170030872     0.001205629375     0.746964248093     1.007825032230
         C            0.092829969128     0.000205629375     1.104964248093    12.000000000000
         N            1.150829969128    -0.001794370625     0.334964248093    14.003074004430
         H            1.335829969128     0.000205629375    -1.807035751907     1.007825032230
         H           -1.439170030872     0.001205629375    -1.745035751907     1.007825032230
         H            0.092829969128     0.000205629375     2.195964248093     1.007825032230

  Running in c1 symmetry.

  Rotational constants: A =      0.32797  B =      0.31458  C =      0.16057 [cm^-1]
  Rotational constants: A =   9832.21602  B =   9430.98162  C =   4813.71207 [MHz]
  Nuclear repulsion =  163.604072365116423

  Charge       = 0
  Multiplicity = 1
  Electrons    = 36
  Nalpha       = 18
  Nbeta        = 18

  ==> Algorithm <==

  SCF Algorithm Type is DF.
  DIIS enabled.
  MOM disabled.
  Fractional occupation disabled.
  Guess Type is SAD.
  Energy threshold   = 1.00e-06
  Density threshold  = 1.00e-06
  Integral threshold = 1.00e-12

  ==> Primary Basis <==

  Basis Set: DEF2-SVP
    Blend: DEF2-SVP
    Number of shells: 42
    Number of basis functions: 90
    Number of Cartesian functions: 95
    Spherical Harmonics?: true
    Max angular momentum: 2

  ==> DFT Potential <==

   => LibXC <=

    Version 6.2.2
    S. Lehtola, C. Steigemann, M. J.T. Oliveira, and M. A.L. Marques.,  SoftwareX 7, 1–5 (2018) (10.1016/j.softx.2017.11.002)

   => Composite Functional: PBE0 <=

    PBE0 Hyb-GGA Exchange-Correlation Functional

    C. Adamo and V. Barone.,  J. Chem. Phys. 110, 6158 (1999) (10.1063/1.478522)
    M. Ernzerhof and G. E. Scuseria.,  J. Chem. Phys. 110, 5029 (1999) (10.1063/1.478401)

    Deriv               =              1
    GGA                 =           TRUE
    Meta                =          FALSE

    Exchange Hybrid     =           TRUE
    MP2 Hybrid          =          FALSE

   => Exchange Functionals <=

    0.7500   Perdew, Burke & Ernzerhof

   => Exact (HF) Exchange <=

    0.2500               HF

   => Correlation Functionals <=

    1.0000   Perdew, Burke & Ernzerhof

   => LibXC Density Thresholds  <==

    XC_HYB_GGA_XC_PBEH:  1.00E-15

   => Molecular Quadrature <=

    Radial Scheme          =       TREUTLER
    Pruning Scheme         =           NONE
    Nuclear Scheme         =       TREUTLER

    Blocking Scheme        =         OCTREE
    BS radius alpha        =              1
    Pruning alpha          =              1
    Radial Points          =             75
    Spherical Points       =            302
    Total Points           =         191696
    Total Blocks           =           1459
    Max Points             =            256
    Max Functions          =             90
    Weights Tolerance      =       1.00E-15

   => Loading Basis Set <=

    Name: (DEF2-SVP AUX)
    Role: JKFIT
    Keyword: DF_BASIS_SCF
    atoms 1-2, 5 entry C          line   198 file /storage/coda1/p-jmcdaniel43/0/sparmar32/.conda/envs/p4env/share/psi4/basis/def2-universal-jkfit.gbs
    atoms 3, 6   entry N          line   258 file /storage/coda1/p-jmcdaniel43/0/sparmar32/.conda/envs/p4env/share/psi4/basis/def2-universal-jkfit.gbs
    atoms 4, 7-9 entry H          line    18 file /storage/coda1/p-jmcdaniel43/0/sparmar32/.conda/envs/p4env/share/psi4/basis/def2-universal-jkfit.gbs

  ==> Integral Setup <==

  DFHelper Memory: AOs need 0.031 GiB; user supplied 0.031 GiB.
  Using in-core AOs.

  ==> MemDFJK: Density-Fitted J/K Matrices <==

    J tasked:                   Yes
    K tasked:                   Yes
    wK tasked:                   No
    OpenMP threads:               8
    Memory [MiB]:                31
    Algorithm:                 Core
    Schwarz Cutoff:           1E-12
    Mask sparsity (%):       0.1728
    Fitting Condition:        1E-10

   => Auxiliary Basis Set <=

  Basis Set: (DEF2-SVP AUX)
    Blend: DEF2-UNIVERSAL-JKFIT
    Number of shells: 149
    Number of basis functions: 451
    Number of Cartesian functions: 533
    Spherical Harmonics?: true
    Max angular momentum: 4

  Cached 50.0% of DFT collocation blocks in 0.224 [GiB].

  Minimum eigenvalue in the overlap matrix is 1.8394961776E-03.
  Reciprocal condition number of the overlap matrix is 3.0423638431E-04.
    Using symmetric orthogonalization.

  ==> Pre-Iterations <==

  SCF Guess: Superposition of Atomic Densities via on-the-fly atomic UHF (no occupation information).

   -------------------------
    Irrep   Nso     Nmo
   -------------------------
     A         90      90
   -------------------------
    Total      90      90
   -------------------------

  ==> Iterations <==

                           Total Energy        Delta E     RMS |[F,P]|

   @DF-RKS iter SAD:  -225.67415080179856   -2.25674e+02   0.00000e+00
   @DF-RKS iter   1:  -225.57128067949157    1.02870e-01   7.12555e-03 DIIS/ADIIS
   @DF-RKS iter   2:  -225.48707982969276    8.42008e-02   8.69583e-03 DIIS/ADIIS
   @DF-RKS iter   3:  -225.78524250692834   -2.98163e-01   1.75741e-03 DIIS/ADIIS
   @DF-RKS iter   4:  -225.79573941950403   -1.04969e-02   6.16966e-04 DIIS/ADIIS
   @DF-RKS iter   5:  -225.79703062421919   -1.29120e-03   1.61225e-04 DIIS/ADIIS
   @DF-RKS iter   6:  -225.79711357367785   -8.29495e-05   5.75964e-05 DIIS
   @DF-RKS iter   7:  -225.79712578753734   -1.22139e-05   7.66953e-06 DIIS
   @DF-RKS iter   8:  -225.79712597521586   -1.87679e-07   3.68484e-06 DIIS
   @DF-RKS iter   9:  -225.79712602930803   -5.40922e-08   4.18382e-07 DIIS
  Energy and wave function converged.


  ==> Post-Iterations <==

   Electrons on quadrature grid:
      Ntotal   =   36.0000279604 ; deviation = 2.796e-05

    Orbital Energies [Eh]
    ---------------------

    Doubly Occupied:

       1A    -14.453803     2A    -14.364626     3A    -10.282444
       4A    -10.261253     5A    -10.241067     6A     -1.040766
       7A     -0.888823     8A     -0.757983     9A     -0.631900
      10A     -0.605721    11A     -0.575270    12A     -0.455201
      13A     -0.452211    14A     -0.449761    15A     -0.417232
      16A     -0.298651    17A     -0.277141    18A     -0.242764

    Virtual:

      19A      0.032476    20A      0.057430    21A      0.075611
      22A      0.114663    23A      0.121168    24A      0.141752
      25A      0.219153    26A      0.235848    27A      0.262886
      28A      0.321796    29A      0.368023    30A      0.411684
      31A      0.422427    32A      0.490909    33A      0.496632
      34A      0.540381    35A      0.545689    36A      0.574227
      37A      0.591636    38A      0.634563    39A      0.654769
      40A      0.709110    41A      0.715767    42A      0.752585
      43A      0.784223    44A      0.809037    45A      0.845570
      46A      0.869265    47A      0.898714    48A      0.973210
      49A      1.031431    50A      1.105882    51A      1.175644
      52A      1.203763    53A      1.220079    54A      1.289227
      55A      1.338205    56A      1.355534    57A      1.383006
      58A      1.535232    59A      1.624809    60A      1.659368
      61A      1.697098    62A      1.752384    63A      1.760579
      64A      1.829214    65A      1.912537    66A      1.914987
      67A      1.930300    68A      1.980871    69A      1.989490
      70A      2.046341    71A      2.092989    72A      2.163664
      73A      2.239837    74A      2.385047    75A      2.395138
      76A      2.484072    77A      2.499438    78A      2.512294
      79A      2.686240    80A      2.737479    81A      2.753368
      82A      2.804127    83A      2.822471    84A      2.884507
      85A      2.918019    86A      2.987826    87A      3.130554
      88A      3.374142    89A      3.421669    90A      3.636326

    Final Occupation by Irrep:
              A
    DOCC [    18 ]
    NA   [    18 ]
    NB   [    18 ]

  @DF-RKS Final Energy:  -225.79712602930803

   => Energetics <=

    Nuclear Repulsion Energy =            163.6040723651164228
    One-Electron Energy =                -628.4315575080833014
    Two-Electron Energy =                 262.8005945882048309
    DFT Exchange-Correlation Energy =     -23.7702354745459346
    Empirical Dispersion Energy =           0.0000000000000000
    VV10 Nonlocal Energy =                  0.0000000000000000
    Total Energy =                       -225.7971260293080036

Computation Completed


Properties will be evaluated at   0.000000,   0.000000,   0.000000 [a0]

Properties computed using the SCF density matrix


 Multipole Moments:

 ------------------------------------------------------------------------------------
     Multipole            Electronic (a.u.)      Nuclear  (a.u.)        Total (a.u.)
 ------------------------------------------------------------------------------------

 L = 1.  Multiply by 2.5417464519 to convert [e a0] to [Debye]
 Dipole X            :          0.3921425           -1.8842858           -1.4921434
 Dipole Y            :         -0.0008264            0.0026506            0.0018242
 Dipole Z            :          0.6768234           -0.5731295            0.1036939
 Magnitude           :                                                    1.4957431

 ------------------------------------------------------------------------------------

*** tstop() called on atl1-1-02-009-5-2.pace.gatech.edu at Thu Oct 24 14:43:45 2024
Module time:
	user time   =      15.71 seconds =       0.26 minutes
	system time =       0.88 seconds =       0.01 minutes
	total time  =          8 seconds =       0.13 minutes
Total time:
	user time   =      15.71 seconds =       0.26 minutes
	system time =       0.88 seconds =       0.01 minutes
	total time  =          8 seconds =       0.13 minutes

    Psi4 stopped on: Thursday, 24 October 2024 02:43PM
    Psi4 wall time for execution: 0:00:08.47

*** Psi4 exiting successfully. Buy a developer a beer!
