Generated by Psi4
        SP                           RHF                      DEF2-SVP
Number of atoms                            I                9
Charge                                     I                0
Multiplicity                               I                1
Number of electrons                        I               36
Number of alpha electrons                  I               18
Number of beta electrons                   I               18
Number of basis functions                  I               90
Number of independent functions            I               90
Atomic numbers                             I   N=           9
           6           6           7           1           6           7
           1           1           1
Nuclear charges                            R   N=           9
  6.00000000e+00  6.00000000e+00  7.00000000e+00  1.00000000e+00  6.00000000e+00
  7.00000000e+00  1.00000000e+00  1.00000000e+00  1.00000000e+00
Current cartesian coordinates              R   N=          27
  1.26768492e+00  3.88583202e-04 -1.78396902e+00 -1.33068850e+00  2.27830933e-03
 -1.78396902e+00 -1.99776183e+00  3.88583202e-04  7.18028366e-01 -3.77788384e+00
  2.27830933e-03  1.41155785e+00  1.75423218e-01  3.88583202e-04  2.08807981e+00
  2.17475346e+00 -3.39086905e-03  6.32990691e-01  2.52435279e+00  3.88583202e-04
 -3.41480267e+00 -2.71963721e+00  2.27830933e-03 -3.29763965e+00  1.75423218e-01
  3.88583202e-04  4.14977101e+00
Integer atomic weights                     I   N=           9
          12          12          14           1          12          14
           1           1           1
Real atomic weights                        R   N=           9
  1.20000000e+01  1.20000000e+01  1.40030740e+01  1.00782503e+00  1.20000000e+01
  1.40030740e+01  1.00782503e+00  1.00782503e+00  1.00782503e+00
Number of primitive shells                 I               80
Number of contracted shells                I               42
Pure/Cartesian d shells                    I                0
Pure/Cartesian f shells                    I                0
Highest angular momentum                   I                2
Largest degree of contraction              I                5
Shell types                                I   N=          42
           0           0           0           1           1          -2
           0           0           0           1           1          -2
           0           0           0           1           1          -2
           0           0           1           0           0           0
           1           1          -2           0           0           0
           1           1          -2           0           0           1
           0           0           1           0           0           1
Number of primitives per shell             I   N=          42
           5           1           1           3           1           1
           5           1           1           3           1           1
           5           1           1           3           1           1
           3           1           1           5           1           1
           3           1           1           5           1           1
           3           1           1           3           1           1
           3           1           1           3           1           1
Shell to atom map                          I   N=          42
           1           1           1           1           1           1
           2           2           2           2           2           2
           3           3           3           3           3           3
           4           4           4           5           5           5
           5           5           5           6           6           6
           6           6           6           7           7           7
           8           8           8           9           9           9
Primitive exponents                        R   N=          80
  1.23840169e+03  1.86290050e+02  4.22511763e+01  1.16765579e+01  3.59305065e+00
  4.02451474e-01  1.30901827e-01  9.46809706e+00  2.01035451e+00  5.47710047e-01
  1.52686138e-01  8.00000000e-01  1.23840169e+03  1.86290050e+02  4.22511763e+01
  1.16765579e+01  3.59305065e+00  4.02451474e-01  1.30901827e-01  9.46809706e+00
  2.01035451e+00  5.47710047e-01  1.52686138e-01  8.00000000e-01  1.71284159e+03
  2.57648127e+02  5.84582459e+01  1.61983679e+01  5.00526008e+00  5.87318566e-01
  1.87645923e-01  1.35714702e+01  2.92573729e+00  7.99277508e-01  2.19543480e-01
  1.00000000e+00  1.30107010e+01  1.96225720e+00  4.44537960e-01  1.21949620e-01
  8.00000000e-01  1.23840169e+03  1.86290050e+02  4.22511763e+01  1.16765579e+01
  3.59305065e+00  4.02451474e-01  1.30901827e-01  9.46809706e+00  2.01035451e+00
  5.47710047e-01  1.52686138e-01  8.00000000e-01  1.71284159e+03  2.57648127e+02
  5.84582459e+01  1.61983679e+01  5.00526008e+00  5.87318566e-01  1.87645923e-01
  1.35714702e+01  2.92573729e+00  7.99277508e-01  2.19543480e-01  1.00000000e+00
  1.30107010e+01  1.96225720e+00  4.44537960e-01  1.21949620e-01  8.00000000e-01
  1.30107010e+01  1.96225720e+00  4.44537960e-01  1.21949620e-01  8.00000000e-01
  1.30107010e+01  1.96225720e+00  4.44537960e-01  1.21949620e-01  8.00000000e-01
Contraction coefficients                   R   N=          80
  5.51736505e-03  4.10888286e-02  1.82253821e-01  4.68284594e-01  4.45758173e-01
  1.00000000e+00  1.00000000e+00  5.68883320e-02  3.12940593e-01  7.60650165e-01
  1.00000000e+00  1.00000000e+00  5.51736505e-03  4.10888286e-02  1.82253821e-01
  4.68284594e-01  4.45758173e-01  1.00000000e+00  1.00000000e+00  5.68883320e-02
  3.12940593e-01  7.60650165e-01  1.00000000e+00  1.00000000e+00 -5.44779958e-03
 -4.06271746e-02 -1.81119623e-01 -4.68439756e-01 -4.46168463e-01  1.00000000e+00
  1.00000000e+00 -5.88481170e-02 -3.20246248e-01 -7.53282265e-01  1.00000000e+00
  1.00000000e+00  3.34854848e-02  2.34721871e-01  8.13770285e-01  1.00000000e+00
  1.00000000e+00  5.51736505e-03  4.10888286e-02  1.82253821e-01  4.68284594e-01
  4.45758173e-01  1.00000000e+00  1.00000000e+00  5.68883320e-02  3.12940593e-01
  7.60650165e-01  1.00000000e+00  1.00000000e+00 -5.44779958e-03 -4.06271746e-02
 -1.81119623e-01 -4.68439756e-01 -4.46168463e-01  1.00000000e+00  1.00000000e+00
 -5.88481170e-02 -3.20246248e-01 -7.53282265e-01  1.00000000e+00  1.00000000e+00
  3.34854848e-02  2.34721871e-01  8.13770285e-01  1.00000000e+00  1.00000000e+00
  3.34854848e-02  2.34721871e-01  8.13770285e-01  1.00000000e+00  1.00000000e+00
  3.34854848e-02  2.34721871e-01  8.13770285e-01  1.00000000e+00  1.00000000e+00
Coordinates of each shell                  R   N=         126
  1.26768492e+00  3.88583202e-04 -1.78396902e+00  1.26768492e+00  3.88583202e-04
 -1.78396902e+00  1.26768492e+00  3.88583202e-04 -1.78396902e+00  1.26768492e+00
  3.88583202e-04 -1.78396902e+00  1.26768492e+00  3.88583202e-04 -1.78396902e+00
  1.26768492e+00  3.88583202e-04 -1.78396902e+00 -1.33068850e+00  2.27830933e-03
 -1.78396902e+00 -1.33068850e+00  2.27830933e-03 -1.78396902e+00 -1.33068850e+00
  2.27830933e-03 -1.78396902e+00 -1.33068850e+00  2.27830933e-03 -1.78396902e+00
 -1.33068850e+00  2.27830933e-03 -1.78396902e+00 -1.33068850e+00  2.27830933e-03
 -1.78396902e+00 -1.99776183e+00  3.88583202e-04  7.18028366e-01 -1.99776183e+00
  3.88583202e-04  7.18028366e-01 -1.99776183e+00  3.88583202e-04  7.18028366e-01
 -1.99776183e+00  3.88583202e-04  7.18028366e-01 -1.99776183e+00  3.88583202e-04
  7.18028366e-01 -1.99776183e+00  3.88583202e-04  7.18028366e-01 -3.77788384e+00
  2.27830933e-03  1.41155785e+00 -3.77788384e+00  2.27830933e-03  1.41155785e+00
 -3.77788384e+00  2.27830933e-03  1.41155785e+00  1.75423218e-01  3.88583202e-04
  2.08807981e+00  1.75423218e-01  3.88583202e-04  2.08807981e+00  1.75423218e-01
  3.88583202e-04  2.08807981e+00  1.75423218e-01  3.88583202e-04  2.08807981e+00
  1.75423218e-01  3.88583202e-04  2.08807981e+00  1.75423218e-01  3.88583202e-04
  2.08807981e+00  2.17475346e+00 -3.39086905e-03  6.32990691e-01  2.17475346e+00
 -3.39086905e-03  6.32990691e-01  2.17475346e+00 -3.39086905e-03  6.32990691e-01
  2.17475346e+00 -3.39086905e-03  6.32990691e-01  2.17475346e+00 -3.39086905e-03
  6.32990691e-01  2.17475346e+00 -3.39086905e-03  6.32990691e-01  2.52435279e+00
  3.88583202e-04 -3.41480267e+00  2.52435279e+00  3.88583202e-04 -3.41480267e+00
  2.52435279e+00  3.88583202e-04 -3.41480267e+00 -2.71963721e+00  2.27830933e-03
 -3.29763965e+00 -2.71963721e+00  2.27830933e-03 -3.29763965e+00 -2.71963721e+00
  2.27830933e-03 -3.29763965e+00  1.75423218e-01  3.88583202e-04  4.14977101e+00
  1.75423218e-01  3.88583202e-04  4.14977101e+00  1.75423218e-01  3.88583202e-04
  4.14977101e+00
Total Energy                               R     -2.257971260293080e+02
Alpha Orbital Energies                     R   N=          90
 -1.44538034e+01 -1.43646261e+01 -1.02824436e+01 -1.02612533e+01 -1.02410671e+01
 -1.04076633e+00 -8.88823281e-01 -7.57983264e-01 -6.31900344e-01 -6.05720806e-01
 -5.75269764e-01 -4.55201235e-01 -4.52210657e-01 -4.49760987e-01 -4.17232135e-01
 -2.98651207e-01 -2.77141180e-01 -2.42763591e-01  3.24757782e-02  5.74302175e-02
  7.56108795e-02  1.14662569e-01  1.21167960e-01  1.41751940e-01  2.19153158e-01
  2.35848201e-01  2.62885560e-01  3.21796350e-01  3.68022892e-01  4.11684108e-01
  4.22427301e-01  4.90909298e-01  4.96632165e-01  5.40381233e-01  5.45688606e-01
  5.74226799e-01  5.91635644e-01  6.34562842e-01  6.54768992e-01  7.09109934e-01
  7.15766503e-01  7.52584740e-01  7.84222758e-01  8.09036672e-01  8.45570203e-01
  8.69264755e-01  8.98714182e-01  9.73210481e-01  1.03143146e+00  1.10588171e+00
  1.17564358e+00  1.20376337e+00  1.22007901e+00  1.28922668e+00  1.33820545e+00
  1.35553386e+00  1.38300649e+00  1.53523187e+00  1.62480892e+00  1.65936785e+00
  1.69709783e+00  1.75238385e+00  1.76057872e+00  1.82921374e+00  1.91253669e+00
  1.91498683e+00  1.93030034e+00  1.98087076e+00  1.98948981e+00  2.04634121e+00
  2.09298870e+00  2.16366422e+00  2.23983689e+00  2.38504686e+00  2.39513777e+00
  2.48407229e+00  2.49943763e+00  2.51229436e+00  2.68624002e+00  2.73747913e+00
  2.75336798e+00  2.80412733e+00  2.82247075e+00  2.88450719e+00  2.91801904e+00
  2.98782621e+00  3.13055358e+00  3.37414217e+00  3.42166931e+00  3.63632613e+00
Alpha MO coefficients                      R   N=        8100
  4.55629937e-05 -1.55392304e-04  1.30133475e-02 -1.83974400e-04 -1.12601895e-07
 -1.75094334e-04 -4.57622945e-03  2.12681136e-06  4.69212702e-03 -2.97470756e-04
  4.56257626e-04  4.08999820e-07  3.27106998e-06 -6.58410405e-07 -2.72460681e-04
 -1.26467744e-04 -2.06593432e-02 -3.16585784e-04 -8.68762572e-07  8.99925131e-04
 -4.65191285e-03  1.14262538e-05 -9.55483473e-03  1.52832023e-03 -8.38503296e-04
 -2.00427665e-06 -1.00894883e-04  8.85062305e-07  9.88390411e-01 -4.64655883e-02
  4.18742248e-02 -6.63828329e-05  5.03605644e-06  5.73885293e-05  9.59686442e-03
  3.89971228e-06 -4.09767015e-03  1.95953861e-04  9.07753046e-04 -6.27260193e-07
 -1.80208542e-03  3.00873868e-06  4.58122534e-03 -2.18277857e-03  3.69411243e-03
 -5.57265881e-06 -1.40453855e-03 -2.82211769e-04 -1.84387090e-04 -1.23183905e-02
 -8.10298785e-04 -4.49138463e-07 -4.60688938e-04  4.56754049e-03  2.89472961e-06
  5.71616277e-03 -3.40212108e-04  1.42836342e-03 -4.12319572e-07  1.07534449e-03
  9.17863226e-07 -9.98061319e-05  9.12259290e-04 -2.57931349e-03  1.87109293e-04
 -6.03059582e-07 -1.21258342e-04  3.82573678e-04 -3.66130891e-06  8.77997106e-04
 -1.49715602e-04 -1.73904092e-04 -3.15024009e-07 -1.89440751e-04  6.22106989e-08
  6.77415745e-04  3.69538212e-04 -8.35353120e-05 -1.94761706e-07  9.20295028e-05
 -4.37318321e-04 -7.34534604e-04 -1.81165266e-04 -1.28169683e-06  3.27025891e-04
 -7.64530751e-05 -2.02104207e-04 -4.41872724e-04 -3.94365009e-07 -1.05782677e-04
  2.53883241e-04  3.08953777e-04  2.30295541e-02 -5.42752548e-04  2.12232173e-06
 -9.10385485e-04 -2.86090928e-03 -1.09590377e-05  1.11064882e-02 -1.24719198e-03
 -1.29307631e-03  3.82443914e-06  4.40731752e-05  1.86867938e-06 -2.26919829e-05
  1.72019194e-04 -1.35955514e-02 -1.62852369e-04  6.51094633e-07  7.61563162e-05
 -5.54997468e-03  5.80704162e-06 -6.78302202e-03  1.76673734e-04  1.35383865e-04
 -9.04159319e-07 -5.24698777e-05 -9.45006994e-08 -2.22389825e-04 -1.03463991e-03
  4.91165178e-03  2.29245192e-04  2.61214546e-07  8.63739467e-05  1.00660908e-03
  3.93251769e-06 -1.19444512e-03  1.49663623e-04 -1.49355779e-04  6.74417714e-07
  2.10339307e-04 -6.05733128e-07 -5.38379253e-05  5.53123013e-04  4.79440834e-05
 -3.91391175e-07  5.87675800e-05  3.49296657e-04 -7.66946711e-05  1.36708847e-02
 -1.13847110e-03  2.84381169e-06  7.59866208e-04  6.23057998e-03 -1.46895997e-05
 -5.87114539e-03  2.68380762e-04  1.61482738e-03 -2.50091930e-06 -1.16250848e-03
  5.26421574e-06 -9.88746330e-01  4.48304902e-02 -4.66991851e-02  3.77373675e-03
 -8.45822019e-06  7.86033005e-04  1.02591765e-02 -2.42665806e-05  3.26411209e-03
  4.47637191e-04 -4.39675220e-04  2.38926994e-07  3.14844103e-04 -1.05562909e-06
  1.59001136e-04  6.79578441e-04 -2.18801077e-04  1.11013434e-06 -4.44459664e-04
 -8.77543213e-04 -1.25922522e-03 -8.84142878e-05 -6.58904062e-07  7.16701719e-05
 -2.35086110e-05  7.52196195e-05 -6.05738610e-04  1.58017946e-06  1.01410023e-04
  1.75225933e-04  7.69905799e-04  1.06664967e-03  4.31547672e-04 -8.96915090e-07
  8.16575312e-04 -1.47741442e-03 -3.94389872e-06  4.30970365e-03  4.24641269e-04
 -1.13983769e-04 -1.00906817e-06  2.28463052e-07  1.24605470e-06  6.11484265e-04
  9.08960554e-04  1.95113504e-03 -3.16178524e-04 -4.05381642e-07  8.25327768e-04
  4.15423348e-03 -3.17646810e-06  2.63995007e-03  4.83575022e-04  3.78237686e-04
 -1.13646798e-06 -6.03402137e-05 -9.38504181e-07 -6.35495581e-05  8.40892841e-04
 -1.30614178e-02  5.07752828e-04  2.75413286e-07  9.17470181e-04 -1.17770240e-02
  1.20515661e-06 -7.64885962e-04 -1.58469258e-04 -1.01781314e-03  3.70017412e-07
 -1.30254479e-03 -8.67512250e-07 -1.79909057e-03 -4.77025080e-04  6.06243794e-04
  1.44461619e-06  7.87939300e-04  9.88308141e-01  4.83385196e-02 -4.48770116e-03
 -5.47380108e-04 -4.12655010e-06 -7.59926712e-04  2.53723233e-04 -1.12415068e-05
 -1.04213652e-02  2.43584058e-03 -1.42483719e-04  4.25216874e-06  2.12203821e-03
 -3.82620340e-06  3.27038654e-05  7.96448803e-04 -1.62670078e-02 -9.93058489e-04
  1.86015221e-06  1.03479501e-03  9.28576941e-03 -1.78303785e-05 -8.12638776e-04
 -8.66588682e-05  8.29043645e-04 -9.35323326e-07 -1.25976865e-03  5.55326766e-06
  6.28901847e-04  1.49233236e-03  2.08457820e-05  2.60740119e-07 -1.55294608e-04
  6.27915510e-04  1.72278167e-03 -2.06104740e-04  3.79423239e-07 -4.93901361e-05
 -4.35191734e-03  7.57859100e-03 -1.02300956e-06  6.32814705e-07  3.16446730e-03
  1.44382893e-02 -2.49266090e-03 -1.83730044e-04  2.57349736e-03 -1.85145883e-06
  4.77910747e-04  2.46154946e-03  9.26995840e-07 -6.67170218e-03  5.07675987e-04
  3.16187330e-04 -6.35916251e-08 -1.53610385e-03  3.06010216e-06  9.88268225e-01
  4.74227364e-02 -1.29357019e-02 -7.73739551e-04 -4.37336074e-06  1.17273126e-03
  1.09611685e-04 -5.35744769e-06  8.48348507e-03  1.50900605e-03  1.42633624e-03
 -3.03204655e-06  2.37964245e-03 -1.77476104e-06 -7.83951328e-05  9.88725511e-04
 -1.51220280e-02 -7.55327114e-05  1.02121245e-06 -7.74328064e-04 -7.08326441e-03
 -6.00292556e-06  9.08445679e-03 -1.46057844e-03  6.49689170e-04  3.06535272e-06
 -6.31871190e-04 -8.22152378e-07 -1.30239661e-03 -5.79735843e-04 -4.16481257e-05
  2.08719486e-06 -9.69890335e-04 -8.30028538e-04  7.58768973e-04  9.42865635e-03
 -2.93432320e-04 -2.33422446e-07 -3.45009324e-04  2.44751810e-03 -2.89694343e-06
 -1.08362778e-02  4.93236022e-04  3.47406160e-04  3.63124001e-07  8.07158152e-05
 -1.19343212e-06  8.82617684e-05  6.87859144e-04 -5.14578825e-03  1.55768330e-04
 -1.16536862e-06  5.59264090e-05  1.53816623e-03 -5.89070133e-06 -2.06420848e-03
  6.28044477e-07  2.57521597e-04 -5.59677533e-08  1.15726328e-04  1.53157435e-07
 -7.96713354e-04 -2.25766474e-03 -4.19164124e-04  2.68519452e-07  3.02649641e-04
 -4.63561581e-03  7.41624229e-03 -1.74604014e-03  7.05572385e-08 -2.71351246e-03
  1.25622708e-03  2.90790930e-03 -2.05208958e-04  2.13554137e-07  2.12319911e-04
  9.88284856e-01  4.73060366e-02 -1.65476950e-02  2.16751943e-04 -1.94156587e-06
  5.32235971e-04  2.73574269e-03 -1.15933283e-05  7.68727479e-03  1.55397280e-03
 -1.07483284e-03 -4.42311522e-06  2.25896118e-03 -3.11199764e-06 -1.36676898e-02
 -3.57613232e-03  4.50456728e-03 -2.47848855e-03  2.57881352e-06  5.22117133e-04
 -1.72084035e-03  2.28694802e-06 -6.55716821e-03  5.14048063e-04 -2.93814887e-04
  5.57823055e-07 -1.65693280e-03  2.15578799e-06  1.20646658e-04  1.07934246e-03
 -4.60584195e-03 -2.70107455e-04 -7.14470874e-07  1.78272393e-04 -2.58100214e-03
 -1.48170489e-06 -1.71996063e-03 -2.10553437e-05 -3.24306894e-04  2.45491088e-07
  7.38175806e-05 -4.59971180e-07 -1.95094169e-04 -4.85531846e-04 -1.22409866e-04
  6.98089498e-07  2.40505701e-04 -3.68021120e-04  9.44469537e-04  1.06787872e-02
  2.36607740e-04 -8.55118538e-07 -4.25336453e-04 -1.72702655e-03  5.44532210e-07
 -9.97667565e-03  3.03880881e-04 -1.37359363e-04  7.57469315e-07  1.30850660e-04
  8.93408931e-07 -2.49922495e-05  1.40616903e-03 -1.68013645e-02 -2.75528628e-04
  1.17604988e-06 -9.45946453e-04  6.51567630e-03 -1.93051047e-05  6.50605911e-03
 -1.32676490e-03 -9.37050568e-04  4.60644949e-06 -7.34121255e-04  4.04474890e-06
 -4.56970219e-03  6.97109285e-03  1.42352154e-03  9.03598758e-07 -2.80415527e-03
 -7.79610541e-04 -3.10566608e-03  3.46266786e-04 -4.58319646e-07  3.67653993e-04
  1.03905618e-03  2.27286278e-03  1.27201706e-04 -1.29723323e-07  1.77798356e-04
  7.91778893e-02 -1.47631279e-01 -3.13647612e-02  3.01623056e-02  4.84614936e-05
 -7.13556180e-02  1.61881990e-02 -1.21733959e-05 -6.49866017e-03 -8.04768571e-03
  2.72258220e-03  1.54094182e-05 -5.50716484e-03  7.40477525e-06  9.82771812e-02
 -1.82043048e-01 -2.36302778e-04 -1.83324824e-02  9.51036170e-05 -9.56254822e-02
  9.27583152e-03 -1.03535658e-05 -3.07094586e-03 -1.12626370e-02 -1.11495147e-04
  1.89128544e-05 -5.67262035e-03  6.93215108e-06 -1.90502964e-01 -3.74369730e-01
 -1.74081709e-01  7.23572107e-02  8.26548090e-05 -2.03713855e-02 -4.39164184e-02
 -8.97573856e-06  1.42068293e-02 -3.53045809e-03  5.77046180e-04  6.37652600e-06
 -1.02320857e-02 -6.41262805e-07 -8.41871429e-02 -5.47629894e-03 -1.18016927e-02
  9.44037032e-06  4.47804682e-03  1.29161913e-01 -2.44934346e-01 -3.76530355e-03
  2.63600980e-02  7.74836258e-05  1.07242570e-01  7.54979115e-03 -1.98703626e-05
 -1.50525716e-04 -7.53549719e-03 -2.59506944e-03 -1.18543262e-05 -1.12175970e-02
  1.75373724e-05 -1.14019391e-01 -2.18166588e-01 -1.04153077e-01 -9.30682767e-02
  1.80153516e-04 -1.39435737e-02  2.85050316e-02 -5.51927305e-05  4.16982198e-03
 -3.62898262e-04  9.90031321e-05  4.64641352e-06 -8.48111457e-03  3.21540420e-05
 -1.30457437e-02 -4.05115815e-03  9.61393137e-04  1.26016946e-06 -2.07457796e-03
 -1.85564395e-02 -1.52875679e-03 -2.43152503e-03  3.05462320e-06 -2.91198297e-03
 -2.49393594e-02 -4.98113004e-03 -1.42690275e-05  2.17704475e-06  4.62200622e-03
  9.46663916e-02 -1.84917176e-01 -2.76970228e-02 -3.75838537e-02  1.40356121e-04
 -1.01070068e-01  7.55491389e-03  1.19035222e-05 -2.80126180e-02 -1.49915688e-02
 -5.03689308e-03  2.97887587e-05 -3.72050310e-04  7.45658019e-06 -4.27753132e-02
  8.45225484e-02  2.36237027e-02 -7.04105653e-02 -5.27338653e-06  6.52878975e-02
 -1.59941034e-02  7.99544723e-06  1.58391556e-02  1.02952656e-02 -9.07464265e-03
 -4.26645203e-06 -2.28124865e-03  1.33121669e-05  1.73195842e-01  3.55359526e-01
  1.60182989e-01  4.77605792e-02 -1.59752101e-04  8.84461218e-03 -2.67576494e-03
  3.28130431e-05 -1.04623069e-02  5.84867018e-03 -1.04912899e-04 -4.84495471e-06
  1.93680310e-03  2.70935675e-07  1.41974824e-01  6.25467013e-03  1.70015418e-02
 -1.46490368e-05 -7.08457389e-03  4.68338155e-02 -9.68542718e-02 -1.35903330e-02
 -1.68327618e-01  1.95272120e-04  5.28493900e-02 -3.17066975e-02  3.92717942e-05
  1.90090649e-02 -7.28676545e-03  1.95961076e-02 -2.67357433e-05  2.39299294e-05
  1.96138628e-05 -1.92502022e-01 -3.86876031e-01 -1.57383471e-01 -1.05056244e-01
  2.71361689e-04 -2.93164055e-02  2.53320155e-02 -6.05854991e-05  1.61964279e-02
 -4.91483768e-03 -1.40523391e-04  8.89012002e-06 -5.43411262e-03  3.07470148e-05
 -3.29101477e-02 -1.50888028e-02  1.94791532e-03  1.64010517e-06 -4.45433924e-03
  2.23265454e-02  1.64503024e-03  1.88332786e-03  3.80205687e-07  3.02771387e-03
 -9.63875413e-03 -8.39164319e-03 -1.17558038e-03  1.10831652e-06  8.68001908e-04
  1.41548022e-01 -2.77049021e-01 -7.05926501e-02  9.18155339e-02 -3.89478580e-05
  1.35249126e-02  2.73799293e-02 -1.61685087e-05  3.22876929e-04  4.80310952e-03
 -3.55921804e-04  6.92199646e-06 -1.08927825e-02  1.62290426e-05  1.80872435e-01
 -3.58739045e-01 -9.13359463e-02 -6.13903031e-02  1.31984837e-04 -1.84704862e-02
 -2.70780133e-02  7.14524757e-06 -7.03414288e-04 -7.19487027e-04  1.50156525e-03
  1.18272246e-05 -1.04362655e-02  1.10874110e-05  3.59967053e-02  7.61770821e-02
  2.27980275e-02 -1.87384156e-02  5.39243514e-05 -2.07807723e-01  1.10538011e-02
 -3.46075247e-05  9.11204424e-02 -6.21584871e-03  1.02342989e-02  1.41048535e-05
  3.39776451e-03 -5.15703719e-06  6.29141976e-02  4.73624450e-03  8.24011308e-03
 -8.76486931e-06  1.71847315e-03 -1.49635065e-01  3.03499698e-01  8.92621301e-02
 -1.48522255e-02 -1.39759125e-04 -1.29027594e-03 -8.55964168e-03 -3.36229869e-06
 -1.70700184e-02 -6.77633479e-03 -1.40354138e-03  1.60589876e-05  1.23836923e-02
 -1.89392954e-05  3.97660113e-02  8.40283019e-02  2.76081950e-02  4.14270007e-02
 -2.82487743e-05 -1.18513073e-01 -6.98584998e-03 -1.33766539e-05  4.61020902e-02
 -4.33874078e-03 -1.28761172e-02  2.62339390e-05  2.53537119e-03 -5.15491538e-06
 -7.48501791e-02 -1.44375527e-02  7.08484654e-03 -1.16747290e-06 -6.73811122e-03
 -1.03083582e-01 -2.13209537e-02 -8.42857264e-03  2.67091484e-06 -8.92208925e-03
  1.02224500e-01  2.18165799e-02 -2.83839832e-04 -1.75940097e-06 -1.21013679e-02
  6.11338530e-02 -1.31452437e-01 -1.01018473e-01 -1.77180399e-01  2.67860806e-04
 -6.24436704e-02 -1.76736102e-02  4.26503480e-05 -1.86647594e-02 -8.86530656e-03
 -1.11162492e-02  3.09199349e-05  2.58404060e-03  1.06442866e-05 -8.07395366e-02
  1.74069936e-01  8.23013271e-02  6.21135097e-02 -6.55566648e-05  3.11841549e-02
  5.67966261e-02 -4.02846181e-05  1.54207129e-02  9.12053584e-03  1.10667197e-02
 -1.72790826e-05 -1.02280328e-03 -2.88825581e-06 -5.57421354e-02 -1.13342887e-01
 -6.94035780e-02 -3.48617607e-01  1.60683217e-04  7.71052422e-02  1.16605317e-01
 -3.24184153e-05 -1.67762637e-02  2.41211158e-03  3.31607579e-03 -8.29284834e-06
 -2.21112107e-04  2.56058587e-05 -3.08959428e-01 -5.80647911e-02 -2.44490740e-02
  3.09394308e-05  1.10901542e-02 -1.08243207e-01  2.34435651e-01  6.51557841e-02
 -4.80818898e-02 -3.06189645e-05 -3.09513232e-02  5.13421120e-03 -9.99709906e-06
 -3.02791893e-02  1.01749268e-02  1.16801269e-02  1.80915338e-06  3.56229935e-04
 -1.70842756e-06 -9.14627777e-02 -1.96895509e-01 -1.29131521e-01  6.03292367e-02
  3.61844597e-05 -1.47747685e-01 -2.69715625e-02 -1.32478442e-05  4.91363523e-02
 -9.24097904e-03 -6.19135452e-03  2.41782943e-05  6.58252176e-03 -1.41738004e-05
 -7.98234863e-02 -1.36467202e-02  2.12862567e-03  3.61951424e-06 -7.10448126e-03
  4.01700348e-02  2.17845790e-02  1.39255938e-03  3.22212868e-07  2.84157309e-03
  8.17787675e-02  3.14463029e-02 -2.08932681e-03  1.43053112e-06 -6.17477221e-03
  1.46501850e-01 -3.02238653e-01 -1.20016869e-01 -1.39695794e-02 -3.13104803e-05
  7.46680111e-02  7.03222869e-03 -1.86904800e-05 -2.53360313e-03  5.34668578e-04
 -3.38244057e-04  7.59181854e-06 -4.41421408e-03  1.62116159e-05 -5.90202713e-02
  1.23409084e-01  4.48401419e-02 -2.12066490e-01 -3.38535404e-05  7.94351751e-02
 -5.14173435e-02  1.76643947e-06  3.57858624e-02  1.04423541e-02 -6.81879838e-03
 -1.88520493e-05 -2.01951978e-03  1.69234971e-05 -2.99727486e-03 -6.21048783e-03
 -2.43625105e-02  1.38443373e-01 -5.93026425e-05  2.71857361e-01 -7.00216324e-02
  1.33665437e-05 -1.31238360e-01  3.58052238e-03 -3.33057054e-03 -2.10732892e-05
 -2.04317291e-03 -1.39536541e-05  1.88854142e-02  2.96284316e-03 -1.70547036e-03
  9.56597879e-07 -8.65117497e-03  2.64312293e-02 -5.07553891e-02  7.77379237e-03
  2.70747644e-01 -2.84000709e-04 -4.36355706e-02  5.90593206e-02 -9.25425358e-05
 -2.37634578e-02  2.88176644e-04 -1.47296512e-02  1.97437109e-05 -2.15184930e-03
 -3.05508023e-05  8.09901307e-02  1.74796079e-01  9.43730116e-02  5.46746653e-02
 -5.96022280e-05 -1.61850482e-01 -1.12196195e-02  6.61552511e-06  5.52236513e-02
 -4.05157474e-03 -9.55161659e-03  2.78600570e-05  1.39752704e-03 -7.32356441e-06
 -1.67096992e-01 -4.27176040e-02  9.99166325e-03 -1.40753318e-06 -1.05460551e-02
  1.05217532e-01  3.25683129e-02  3.09610333e-03  1.20026927e-07  8.04921325e-03
 -4.91011889e-02 -1.13202858e-02  3.77559850e-03 -3.14455248e-06  3.64775873e-03
  3.15431847e-02 -6.20051436e-02 -3.21467414e-02  4.54669147e-02 -2.03041984e-04
  1.68504800e-01  4.15806158e-03 -5.81245052e-05  6.78511855e-02  9.07760358e-03
 -4.99020954e-03 -1.62497388e-05 -2.44696065e-03  2.51270551e-06  8.54704460e-02
 -1.74476001e-01 -1.19672644e-01  3.43790486e-02 -1.13479371e-04  2.31914740e-01
  1.58408605e-02 -2.33488957e-05  4.48766556e-02  1.22800236e-02  4.34686003e-03
 -2.52613903e-05 -5.56927877e-03 -3.06393473e-06  4.34027404e-02  9.87554021e-02
  9.73161156e-02 -1.75394534e-01  3.65111114e-05  9.13575266e-02  8.98309320e-02
 -1.40461427e-05 -4.55153449e-02 -4.52974862e-03 -4.75231074e-03 -3.34047364e-06
  2.78447069e-03  1.19860990e-05 -9.94964719e-02 -2.04324420e-02 -7.40563850e-03
  9.16300778e-06  2.07927880e-03  9.03411504e-02 -1.87580983e-01 -1.16977267e-01
 -1.00043307e-01  6.96056906e-05 -2.25924035e-01 -2.22191629e-03  3.12072285e-06
 -5.51359396e-02  8.90021942e-03  9.62676127e-03  1.04610477e-06 -3.29428236e-03
  1.64740586e-05  2.86780039e-03  7.74251228e-03 -1.85524130e-02  2.84768954e-02
 -4.64520104e-05  1.42171891e-01 -1.61471597e-02 -1.57801240e-06 -5.55356456e-02
 -4.02039945e-03  1.05844388e-02 -2.12346713e-05  3.72049423e-03 -9.58388899e-06
 -8.74217635e-02 -5.42712287e-03  6.54407451e-03 -3.47441488e-06 -4.82986877e-03
 -2.05254815e-01 -4.37757534e-02 -1.21129129e-02 -3.44969113e-06 -1.00471285e-02
 -2.24827080e-01 -4.71539297e-02 -8.17206921e-04 -1.08254513e-06  1.74310421e-02
 -2.36018432e-04  2.30957682e-03 -2.92678503e-02 -3.14362630e-01 -5.06076044e-04
  6.24272262e-04 -1.09649067e-01 -2.57137136e-04 -1.53763797e-02 -2.16520486e-03
 -4.60865251e-03 -5.26230096e-05  1.51231225e-03  4.35148284e-05 -1.27881926e-02
  1.97895671e-02  6.24535804e-03  2.59653481e-01 -1.06224320e-03 -1.74316736e-01
  8.11621475e-02 -4.99999748e-04 -4.45662640e-02 -1.59573967e-02  7.24220401e-03
 -7.74838727e-05  6.02101479e-03 -3.69684724e-05 -1.56294894e-02 -4.58855885e-02
 -2.00515087e-02  1.38517162e-01  2.04092049e-03 -2.36177527e-01 -2.57852593e-02
 -1.38171963e-03  1.08410737e-01 -1.16078263e-02 -9.13254257e-03  3.36499012e-05
  7.37177384e-03 -8.02129780e-05  2.05469810e-01  8.09901168e-02  1.27575642e-02
 -8.65618591e-05  7.85957604e-04  1.98409188e-02 -4.20990538e-02 -7.50796051e-02
  9.91342682e-02 -1.67277386e-03 -2.12851596e-01  1.93828517e-02 -7.19379619e-04
 -4.59389612e-02 -7.48330343e-03 -1.09426979e-02  1.26572890e-04  7.41780016e-03
  1.41138264e-05 -1.15595063e-02 -2.57886679e-02  8.92251741e-03  1.71978232e-01
  9.33846649e-04 -1.46641706e-01 -9.08732286e-02 -4.98271604e-04  5.64588575e-02
 -1.33063625e-02  1.29667409e-03  2.11544523e-05  1.00343343e-02  5.72518187e-05
 -1.45739132e-01 -4.81004820e-02  1.50886362e-03 -1.44348898e-05 -8.67886066e-03
 -1.72695127e-02 -3.60256142e-03  4.80142515e-03 -2.91433347e-05 -4.50879609e-03
 -2.00665729e-01 -6.99057806e-02  2.95889269e-03 -4.46407105e-05  1.02323935e-02
  1.01627003e-03 -2.27003328e-03 -1.93742027e-03  4.20010654e-03 -1.71576665e-01
  1.44105098e-03  1.56341170e-03 -8.20518588e-02  7.10046478e-05  1.28238231e-04
  2.85403007e-04 -1.33995968e-02 -6.80270323e-05  7.59777580e-03 -3.09022206e-04
  4.18699392e-04  1.84378003e-03 -6.15078320e-03 -2.16928822e-01 -4.70678947e-03
 -1.35735846e-03 -1.03223193e-01 -8.38397672e-04  5.92928537e-05  3.06929722e-04
 -1.88260655e-02 -1.00305921e-04 -4.22860331e-03  1.19722251e-04  4.11697536e-04
 -3.14641990e-04 -3.68201138e-03  3.72599813e-01 -3.05869143e-03  1.11658094e-03
 -2.47261005e-01  1.60190760e-03  7.89564654e-05  3.12653391e-04  3.51235104e-03
 -1.98088195e-05 -1.19753942e-02 -2.68018029e-03 -1.06343023e-03 -9.97008027e-05
 -1.21429035e-02  1.79487015e-04  1.01832860e-04  9.41169359e-06 -1.03553977e-04
 -4.64456362e-03 -2.61241866e-01 -2.30722223e-03 -1.47565563e-03 -1.25778410e-01
 -4.11811577e-04 -1.30002182e-04  2.08866092e-04  2.04700841e-02  6.23680249e-05
  6.18849383e-03  8.05132770e-04  1.74047615e-03  2.09563105e-03 -9.14422446e-04
  2.07789427e-01  3.28286814e-03  3.41409891e-04 -1.14271882e-01 -1.56881250e-03
  3.98790938e-05  6.43888988e-05  2.63820316e-03  8.71951114e-06  1.74129226e-02
 -2.40191354e-04 -1.07992791e-04  7.43002483e-05 -3.93658452e-03  3.14182873e-05
  6.88603004e-03  2.73033795e-03  1.74540054e-04 -5.81039295e-03  2.80382604e-04
 -2.11580697e-03 -9.18730704e-04 -6.73354281e-05 -6.73331931e-03  9.74913223e-05
  5.10603974e-02 -1.11993419e-01 -1.02229943e-01  1.32805424e-01  3.14115756e-03
  9.94658415e-02  5.17526061e-02  1.55018065e-03  1.12278039e-02  7.53937345e-03
  1.42328329e-02  2.40014208e-04 -2.78191540e-03 -1.57916114e-04 -2.22603741e-02
  3.37819631e-02  9.50645360e-02 -2.36620088e-01  4.55424987e-03 -2.72943345e-01
 -4.62011923e-02  2.11792656e-03 -5.10644848e-02  1.68420001e-04  1.85043721e-02
  3.90952853e-04 -1.97682179e-03  8.17086478e-05 -5.17007011e-03 -7.36085646e-03
 -3.86435893e-02 -1.49663050e-01 -7.39776761e-03 -2.20574487e-01  4.97089398e-02